LIGGGHTS data file

20695	atoms

5 atom types

0 5.8500000000000005 xlo xhi
0 5.8500000000000005 ylo yhi
0 2.15 zlo zhi

Atoms

1 1 1 0.000523598761910 0.000523598762 0.200000000000 0.050000000000 0.0750000 2.5250000 0.8750000 0.0750000 2.5250000 0.8750000
2 1 1 0.000523598761910 0.000523598762 0.200000000000 0.050000000000 0.0750000 2.5250000 1.0750000 0.0750000 2.5250000 1.0750000
3 1 1 0.000523598761910 0.000523598762 0.200000000000 0.050000000000 0.0750000 3.3250000 0.8750000 0.0750000 3.3250000 0.8750000
4 1 1 0.000523598761910 0.000523598762 0.200000000000 0.050000000000 0.0750000 3.3250000 1.0750000 0.0750000 3.3250000 1.0750000
5 1 1 0.000523598761910 0.000523598762 0.200000000000 0.050000000000 1.8750000 2.5250000 0.8750000 1.8750000 2.5250000 0.8750000
6 1 1 0.000523598761910 0.000523598762 0.200000000000 0.050000000000 1.8750000 2.5250000 1.0750000 1.8750000 2.5250000 1.0750000
7 1 1 0.000523598761910 0.000523598762 0.200000000000 0.050000000000 1.8750000 3.3250000 0.8750000 1.8750000 3.3250000 0.8750000
8 1 1 0.000523598761910 0.000523598762 0.200000000000 0.050000000000 1.8750000 3.3250000 1.0750000 1.8750000 3.3250000 1.0750000
9 1 1 0.000523598761910 0.000523598762 0.200000000000 0.050000000000 0.0750000 2.5250000 0.9750000 0.0750000 2.5250000 0.9750000
10 1 1 0.000523598761910 0.000523598762 0.200000000000 0.050000000000 0.0750000 3.3250000 0.9750000 0.0750000 3.3250000 0.9750000
11 1 1 0.000523598761910 0.000523598762 0.200000000000 0.050000000000 1.8750000 2.5250000 0.9750000 1.8750000 2.5250000 0.9750000
12 1 1 0.000523598761910 0.000523598762 0.200000000000 0.050000000000 1.8750000 3.3250000 0.9750000 1.8750000 3.3250000 0.9750000
13 1 1 0.000523598761910 0.000523598762 0.200000000000 0.050000000000 0.0750000 2.6250000 0.6750000 0.0750000 2.6250000 0.6750000
14 1 1 0.000523598761910 0.000523598762 0.200000000000 0.050000000000 0.0750000 2.6250000 1.2750000 0.0750000 2.6250000 1.2750000
15 1 1 0.000523598761910 0.000523598762 0.200000000000 0.050000000000 0.0750000 3.2250000 0.6750000 0.0750000 3.2250000 0.6750000
16 1 1 0.000523598761910 0.000523598762 0.200000000000 0.050000000000 0.0750000 3.2250000 1.2750000 0.0750000 3.2250000 1.2750000
17 1 1 0.000523598761910 0.000523598762 0.200000000000 0.050000000000 1.8750000 2.6250000 0.6750000 1.8750000 2.6250000 0.6750000
18 1 1 0.000523598761910 0.000523598762 0.200000000000 0.050000000000 1.8750000 2.6250000 1.2750000 1.8750000 2.6250000 1.2750000
19 1 1 0.000523598761910 0.000523598762 0.200000000000 0.050000000000 1.8750000 3.2250000 0.6750000 1.8750000 3.2250000 0.6750000
20 1 1 0.000523598761910 0.000523598762 0.200000000000 0.050000000000 1.8750000 3.2250000 1.2750000 1.8750000 3.2250000 1.2750000
21 1 1 0.000523598761910 0.000523598762 0.200000000000 0.050000000000 0.0750000 2.6250000 0.7750000 0.0750000 2.6250000 0.7750000
22 1 1 0.000523598761910 0.000523598762 0.200000000000 0.050000000000 0.0750000 2.6250000 1.1750000 0.0750000 2.6250000 1.1750000
23 1 1 0.000523598761910 0.000523598762 0.200000000000 0.050000000000 0.0750000 3.2250000 0.7750000 0.0750000 3.2250000 0.7750000
24 1 1 0.000523598761910 0.000523598762 0.200000000000 0.050000000000 0.0750000 3.2250000 1.1750000 0.0750000 3.2250000 1.1750000
25 1 1 0.000523598761910 0.000523598762 0.200000000000 0.050000000000 1.8750000 2.6250000 0.7750000 1.8750000 2.6250000 0.7750000
26 1 1 0.000523598761910 0.000523598762 0.200000000000 0.050000000000 1.8750000 2.6250000 1.1750000 1.8750000 2.6250000 1.1750000
27 1 1 0.000523598761910 0.000523598762 0.200000000000 0.050000000000 1.8750000 3.2250000 0.7750000 1.8750000 3.2250000 0.7750000
28 1 1 0.000523598761910 0.000523598762 0.200000000000 0.050000000000 1.8750000 3.2250000 1.1750000 1.8750000 3.2250000 1.1750000
29 1 1 0.000523598761910 0.000523598762 0.200000000000 0.050000000000 0.0750000 2.6250000 0.8750000 0.0750000 2.6250000 0.8750000
30 1 1 0.000523598761910 0.000523598762 0.200000000000 0.050000000000 0.0750000 2.6250000 1.0750000 0.0750000 2.6250000 1.0750000
31 1 1 0.000523598761910 0.000523598762 0.200000000000 0.050000000000 0.0750000 3.2250000 0.8750000 0.0750000 3.2250000 0.8750000
32 1 1 0.000523598761910 0.000523598762 0.200000000000 0.050000000000 0.0750000 3.2250000 1.0750000 0.0750000 3.2250000 1.0750000
33 1 1 0.000523598761910 0.000523598762 0.200000000000 0.050000000000 1.8750000 2.6250000 0.8750000 1.8750000 2.6250000 0.8750000
34 1 1 0.000523598761910 0.000523598762 0.200000000000 0.050000000000 1.8750000 2.6250000 1.0750000 1.8750000 2.6250000 1.0750000
35 1 1 0.000523598761910 0.000523598762 0.200000000000 0.050000000000 1.8750000 3.2250000 0.8750000 1.8750000 3.2250000 0.8750000
36 1 1 0.000523598761910 0.000523598762 0.200000000000 0.050000000000 1.8750000 3.2250000 1.0750000 1.8750000 3.2250000 1.0750000
37 1 1 0.000523598761910 0.000523598762 0.200000000000 0.050000000000 0.0750000 2.6250000 0.9750000 0.0750000 2.6250000 0.9750000
38 1 1 0.000523598761910 0.000523598762 0.200000000000 0.050000000000 0.0750000 3.2250000 0.9750000 0.0750000 3.2250000 0.9750000
39 1 1 0.000523598761910 0.000523598762 0.200000000000 0.050000000000 1.8750000 2.6250000 0.9750000 1.8750000 2.6250000 0.9750000
40 1 1 0.000523598761910 0.000523598762 0.200000000000 0.050000000000 1.8750000 3.2250000 0.9750000 1.8750000 3.2250000 0.9750000
41 1 1 0.000523598761910 0.000523598762 0.200000000000 0.050000000000 0.0750000 2.7250000 0.6750000 0.0750000 2.7250000 0.6750000
42 1 1 0.000523598761910 0.000523598762 0.200000000000 0.050000000000 0.0750000 2.7250000 1.2750000 0.0750000 2.7250000 1.2750000
43 1 1 0.000523598761910 0.000523598762 0.200000000000 0.050000000000 0.0750000 3.1250000 0.6750000 0.0750000 3.1250000 0.6750000
44 1 1 0.000523598761910 0.000523598762 0.200000000000 0.050000000000 0.0750000 3.1250000 1.2750000 0.0750000 3.1250000 1.2750000
45 1 1 0.000523598761910 0.000523598762 0.200000000000 0.050000000000 1.8750000 2.7250000 0.6750000 1.8750000 2.7250000 0.6750000
46 1 1 0.000523598761910 0.000523598762 0.200000000000 0.050000000000 1.8750000 2.7250000 1.2750000 1.8750000 2.7250000 1.2750000
47 1 1 0.000523598761910 0.000523598762 0.200000000000 0.050000000000 1.8750000 3.1250000 0.6750000 1.8750000 3.1250000 0.6750000
48 1 1 0.000523598761910 0.000523598762 0.200000000000 0.050000000000 1.8750000 3.1250000 1.2750000 1.8750000 3.1250000 1.2750000
49 1 1 0.000523598761910 0.000523598762 0.200000000000 0.050000000000 0.0750000 2.7250000 0.7750000 0.0750000 2.7250000 0.7750000
50 1 1 0.000523598761910 0.000523598762 0.200000000000 0.050000000000 0.0750000 2.7250000 1.1750000 0.0750000 2.7250000 1.1750000
51 1 1 0.000523598761910 0.000523598762 0.200000000000 0.050000000000 0.0750000 3.1250000 0.7750000 0.0750000 3.1250000 0.7750000
52 1 1 0.000523598761910 0.000523598762 0.200000000000 0.050000000000 0.0750000 3.1250000 1.1750000 0.0750000 3.1250000 1.1750000
53 1 1 0.000523598761910 0.000523598762 0.200000000000 0.050000000000 1.8750000 2.7250000 0.7750000 1.8750000 2.7250000 0.7750000
54 1 1 0.000523598761910 0.000523598762 0.200000000000 0.050000000000 1.8750000 2.7250000 1.1750000 1.8750000 2.7250000 1.1750000
55 1 1 0.000523598761910 0.000523598762 0.200000000000 0.050000000000 1.8750000 3.1250000 0.7750000 1.8750000 3.1250000 0.7750000
56 1 1 0.000523598761910 0.000523598762 0.200000000000 0.050000000000 1.8750000 3.1250000 1.1750000 1.8750000 3.1250000 1.1750000
57 1 1 0.000523598761910 0.000523598762 0.200000000000 0.050000000000 0.0750000 2.7250000 0.8750000 0.0750000 2.7250000 0.8750000
58 1 1 0.000523598761910 0.000523598762 0.200000000000 0.050000000000 0.0750000 2.7250000 1.0750000 0.0750000 2.7250000 1.0750000
59 1 1 0.000523598761910 0.000523598762 0.200000000000 0.050000000000 0.0750000 3.1250000 0.8750000 0.0750000 3.1250000 0.8750000
60 1 1 0.000523598761910 0.000523598762 0.200000000000 0.050000000000 0.0750000 3.1250000 1.0750000 0.0750000 3.1250000 1.0750000
61 1 1 0.000523598761910 0.000523598762 0.200000000000 0.050000000000 1.8750000 2.7250000 0.8750000 1.8750000 2.7250000 0.8750000
62 1 1 0.000523598761910 0.000523598762 0.200000000000 0.050000000000 1.8750000 2.7250000 1.0750000 1.8750000 2.7250000 1.0750000
63 1 1 0.000523598761910 0.000523598762 0.200000000000 0.050000000000 1.8750000 3.1250000 0.8750000 1.8750000 3.1250000 0.8750000
64 1 1 0.000523598761910 0.000523598762 0.200000000000 0.050000000000 1.8750000 3.1250000 1.0750000 1.8750000 3.1250000 1.0750000
65 1 1 0.000523598761910 0.000523598762 0.200000000000 0.050000000000 0.0750000 2.7250000 0.9750000 0.0750000 2.7250000 0.9750000
66 1 1 0.000523598761910 0.000523598762 0.200000000000 0.050000000000 0.0750000 3.1250000 0.9750000 0.0750000 3.1250000 0.9750000
67 1 1 0.000523598761910 0.000523598762 0.200000000000 0.050000000000 1.8750000 2.7250000 0.9750000 1.8750000 2.7250000 0.9750000
68 1 1 0.000523598761910 0.000523598762 0.200000000000 0.050000000000 1.8750000 3.1250000 0.9750000 1.8750000 3.1250000 0.9750000
69 1 1 0.000523598761910 0.000523598762 0.200000000000 0.050000000000 0.0750000 2.8250000 0.5750000 0.0750000 2.8250000 0.5750000
70 1 1 0.000523598761910 0.000523598762 0.200000000000 0.050000000000 0.0750000 2.8250000 1.3750000 0.0750000 2.8250000 1.3750000
71 1 1 0.000523598761910 0.000523598762 0.200000000000 0.050000000000 0.0750000 3.0250000 0.5750000 0.0750000 3.0250000 0.5750000
72 1 1 0.000523598761910 0.000523598762 0.200000000000 0.050000000000 0.0750000 3.0250000 1.3750000 0.0750000 3.0250000 1.3750000
73 1 1 0.000523598761910 0.000523598762 0.200000000000 0.050000000000 1.8750000 2.8250000 0.5750000 1.8750000 2.8250000 0.5750000
74 1 1 0.000523598761910 0.000523598762 0.200000000000 0.050000000000 1.8750000 2.8250000 1.3750000 1.8750000 2.8250000 1.3750000
75 1 1 0.000523598761910 0.000523598762 0.200000000000 0.050000000000 1.8750000 3.0250000 0.5750000 1.8750000 3.0250000 0.5750000
76 1 1 0.000523598761910 0.000523598762 0.200000000000 0.050000000000 1.8750000 3.0250000 1.3750000 1.8750000 3.0250000 1.3750000
77 1 1 0.000523598761910 0.000523598762 0.200000000000 0.050000000000 0.0750000 2.8250000 0.6750000 0.0750000 2.8250000 0.6750000
78 1 1 0.000523598761910 0.000523598762 0.200000000000 0.050000000000 0.0750000 2.8250000 1.2750000 0.0750000 2.8250000 1.2750000
79 1 1 0.000523598761910 0.000523598762 0.200000000000 0.050000000000 0.0750000 3.0250000 0.6750000 0.0750000 3.0250000 0.6750000
80 1 1 0.000523598761910 0.000523598762 0.200000000000 0.050000000000 0.0750000 3.0250000 1.2750000 0.0750000 3.0250000 1.2750000
81 1 1 0.000523598761910 0.000523598762 0.200000000000 0.050000000000 1.8750000 2.8250000 0.6750000 1.8750000 2.8250000 0.6750000
82 1 1 0.000523598761910 0.000523598762 0.200000000000 0.050000000000 1.8750000 2.8250000 1.2750000 1.8750000 2.8250000 1.2750000
83 1 1 0.000523598761910 0.000523598762 0.200000000000 0.050000000000 1.8750000 3.0250000 0.6750000 1.8750000 3.0250000 0.6750000
84 1 1 0.000523598761910 0.000523598762 0.200000000000 0.050000000000 1.8750000 3.0250000 1.2750000 1.8750000 3.0250000 1.2750000
85 1 1 0.000523598761910 0.000523598762 0.200000000000 0.050000000000 0.0750000 2.8250000 0.7750000 0.0750000 2.8250000 0.7750000
86 1 1 0.000523598761910 0.000523598762 0.200000000000 0.050000000000 0.0750000 2.8250000 1.1750000 0.0750000 2.8250000 1.1750000
87 1 1 0.000523598761910 0.000523598762 0.200000000000 0.050000000000 0.0750000 3.0250000 0.7750000 0.0750000 3.0250000 0.7750000
88 1 1 0.000523598761910 0.000523598762 0.200000000000 0.050000000000 0.0750000 3.0250000 1.1750000 0.0750000 3.0250000 1.1750000
89 1 1 0.000523598761910 0.000523598762 0.200000000000 0.050000000000 1.8750000 2.8250000 0.7750000 1.8750000 2.8250000 0.7750000
90 1 1 0.000523598761910 0.000523598762 0.200000000000 0.050000000000 1.8750000 2.8250000 1.1750000 1.8750000 2.8250000 1.1750000
91 1 1 0.000523598761910 0.000523598762 0.200000000000 0.050000000000 1.8750000 3.0250000 0.7750000 1.8750000 3.0250000 0.7750000
92 1 1 0.000523598761910 0.000523598762 0.200000000000 0.050000000000 1.8750000 3.0250000 1.1750000 1.8750000 3.0250000 1.1750000
93 1 1 0.000523598761910 0.000523598762 0.200000000000 0.050000000000 0.0750000 2.8250000 0.8750000 0.0750000 2.8250000 0.8750000
94 1 1 0.000523598761910 0.000523598762 0.200000000000 0.050000000000 0.0750000 2.8250000 1.0750000 0.0750000 2.8250000 1.0750000
95 1 1 0.000523598761910 0.000523598762 0.200000000000 0.050000000000 0.0750000 3.0250000 0.8750000 0.0750000 3.0250000 0.8750000
96 1 1 0.000523598761910 0.000523598762 0.200000000000 0.050000000000 0.0750000 3.0250000 1.0750000 0.0750000 3.0250000 1.0750000
97 1 1 0.000523598761910 0.000523598762 0.200000000000 0.050000000000 1.8750000 2.8250000 0.8750000 1.8750000 2.8250000 0.8750000
98 1 1 0.000523598761910 0.000523598762 0.200000000000 0.050000000000 1.8750000 2.8250000 1.0750000 1.8750000 2.8250000 1.0750000
99 1 1 0.000523598761910 0.000523598762 0.200000000000 0.050000000000 1.8750000 3.0250000 0.8750000 1.8750000 3.0250000 0.8750000
100 1 1 0.000523598761910 0.000523598762 0.200000000000 0.050000000000 1.8750000 3.0250000 1.0750000 1.8750000 3.0250000 1.0750000
101 1 1 0.000523598761910 0.000523598762 0.200000000000 0.050000000000 0.0750000 2.8250000 0.9750000 0.0750000 2.8250000 0.9750000
102 1 1 0.000523598761910 0.000523598762 0.200000000000 0.050000000000 0.0750000 3.0250000 0.9750000 0.0750000 3.0250000 0.9750000
103 1 1 0.000523598761910 0.000523598762 0.200000000000 0.050000000000 1.8750000 2.8250000 0.9750000 1.8750000 2.8250000 0.9750000
104 1 1 0.000523598761910 0.000523598762 0.200000000000 0.050000000000 1.8750000 3.0250000 0.9750000 1.8750000 3.0250000 0.9750000
105 1 1 0.000523598761910 0.000523598762 0.200000000000 0.050000000000 0.0750000 2.9250000 0.5750000 0.0750000 2.9250000 0.5750000
106 1 1 0.000523598761910 0.000523598762 0.200000000000 0.050000000000 0.0750000 2.9250000 1.3750000 0.0750000 2.9250000 1.3750000
107 1 1 0.000523598761910 0.000523598762 0.200000000000 0.050000000000 1.8750000 2.9250000 0.5750000 1.8750000 2.9250000 0.5750000
108 1 1 0.000523598761910 0.000523598762 0.200000000000 0.050000000000 1.8750000 2.9250000 1.3750000 1.8750000 2.9250000 1.3750000
109 1 1 0.000523598761910 0.000523598762 0.200000000000 0.050000000000 0.0750000 2.9250000 0.6750000 0.0750000 2.9250000 0.6750000
110 1 1 0.000523598761910 0.000523598762 0.200000000000 0.050000000000 0.0750000 2.9250000 1.2750000 0.0750000 2.9250000 1.2750000
111 1 1 0.000523598761910 0.000523598762 0.200000000000 0.050000000000 1.8750000 2.9250000 0.6750000 1.8750000 2.9250000 0.6750000
112 1 1 0.000523598761910 0.000523598762 0.200000000000 0.050000000000 1.8750000 2.9250000 1.2750000 1.8750000 2.9250000 1.2750000
113 1 1 0.000523598761910 0.000523598762 0.200000000000 0.050000000000 0.0750000 2.9250000 0.7750000 0.0750000 2.9250000 0.7750000
114 1 1 0.000523598761910 0.000523598762 0.200000000000 0.050000000000 0.0750000 2.9250000 1.1750000 0.0750000 2.9250000 1.1750000
115 1 1 0.000523598761910 0.000523598762 0.200000000000 0.050000000000 1.8750000 2.9250000 0.7750000 1.8750000 2.9250000 0.7750000
116 1 1 0.000523598761910 0.000523598762 0.200000000000 0.050000000000 1.8750000 2.9250000 1.1750000 1.8750000 2.9250000 1.1750000
117 1 1 0.000523598761910 0.000523598762 0.200000000000 0.050000000000 0.0750000 2.9250000 0.8750000 0.0750000 2.9250000 0.8750000
118 1 1 0.000523598761910 0.000523598762 0.200000000000 0.050000000000 0.0750000 2.9250000 1.0750000 0.0750000 2.9250000 1.0750000
119 1 1 0.000523598761910 0.000523598762 0.200000000000 0.050000000000 1.8750000 2.9250000 0.8750000 1.8750000 2.9250000 0.8750000
120 1 1 0.000523598761910 0.000523598762 0.200000000000 0.050000000000 1.8750000 2.9250000 1.0750000 1.8750000 2.9250000 1.0750000
121 1 1 0.000523598761910 0.000523598762 0.200000000000 0.050000000000 0.0750000 2.9250000 0.9750000 0.0750000 2.9250000 0.9750000
122 1 1 0.000523598761910 0.000523598762 0.200000000000 0.050000000000 1.8750000 2.9250000 0.9750000 1.8750000 2.9250000 0.9750000
123 1 1 0.000523598761910 0.000523598762 0.200000000000 0.050000000000 0.1750000 2.4250000 0.6750000 0.1750000 2.4250000 0.6750000
124 1 1 0.000523598761910 0.000523598762 0.200000000000 0.050000000000 0.1750000 2.4250000 1.2750000 0.1750000 2.4250000 1.2750000
125 1 1 0.000523598761910 0.000523598762 0.200000000000 0.050000000000 0.1750000 3.4250000 0.6750000 0.1750000 3.4250000 0.6750000
126 1 1 0.000523598761910 0.000523598762 0.200000000000 0.050000000000 0.1750000 3.4250000 1.2750000 0.1750000 3.4250000 1.2750000
127 1 1 0.000523598761910 0.000523598762 0.200000000000 0.050000000000 1.7750000 2.4250000 0.6750000 1.7750000 2.4250000 0.6750000
128 1 1 0.000523598761910 0.000523598762 0.200000000000 0.050000000000 1.7750000 2.4250000 1.2750000 1.7750000 2.4250000 1.2750000
129 1 1 0.000523598761910 0.000523598762 0.200000000000 0.050000000000 1.7750000 3.4250000 0.6750000 1.7750000 3.4250000 0.6750000
130 1 1 0.000523598761910 0.000523598762 0.200000000000 0.050000000000 1.7750000 3.4250000 1.2750000 1.7750000 3.4250000 1.2750000
131 1 1 0.000523598761910 0.000523598762 0.200000000000 0.050000000000 0.1750000 2.4250000 0.7750000 0.1750000 2.4250000 0.7750000
132 1 1 0.000523598761910 0.000523598762 0.200000000000 0.050000000000 0.1750000 2.4250000 1.1750000 0.1750000 2.4250000 1.1750000
133 1 1 0.000523598761910 0.000523598762 0.200000000000 0.050000000000 0.1750000 3.4250000 0.7750000 0.1750000 3.4250000 0.7750000
134 1 1 0.000523598761910 0.000523598762 0.200000000000 0.050000000000 0.1750000 3.4250000 1.1750000 0.1750000 3.4250000 1.1750000
135 1 1 0.000523598761910 0.000523598762 0.200000000000 0.050000000000 1.7750000 2.4250000 0.7750000 1.7750000 2.4250000 0.7750000
136 1 1 0.000523598761910 0.000523598762 0.200000000000 0.050000000000 1.7750000 2.4250000 1.1750000 1.7750000 2.4250000 1.1750000
137 1 1 0.000523598761910 0.000523598762 0.200000000000 0.050000000000 1.7750000 3.4250000 0.7750000 1.7750000 3.4250000 0.7750000
138 1 1 0.000523598761910 0.000523598762 0.200000000000 0.050000000000 1.7750000 3.4250000 1.1750000 1.7750000 3.4250000 1.1750000
139 1 1 0.000523598761910 0.000523598762 0.200000000000 0.050000000000 0.1750000 2.4250000 0.8750000 0.1750000 2.4250000 0.8750000
140 1 1 0.000523598761910 0.000523598762 0.200000000000 0.050000000000 0.1750000 2.4250000 1.0750000 0.1750000 2.4250000 1.0750000
141 1 1 0.000523598761910 0.000523598762 0.200000000000 0.050000000000 0.1750000 3.4250000 0.8750000 0.1750000 3.4250000 0.8750000
142 1 1 0.000523598761910 0.000523598762 0.200000000000 0.050000000000 0.1750000 3.4250000 1.0750000 0.1750000 3.4250000 1.0750000
143 1 1 0.000523598761910 0.000523598762 0.200000000000 0.050000000000 1.7750000 2.4250000 0.8750000 1.7750000 2.4250000 0.8750000
144 1 1 0.000523598761910 0.000523598762 0.200000000000 0.050000000000 1.7750000 2.4250000 1.0750000 1.7750000 2.4250000 1.0750000
145 1 1 0.000523598761910 0.000523598762 0.200000000000 0.050000000000 1.7750000 3.4250000 0.8750000 1.7750000 3.4250000 0.8750000
146 1 1 0.000523598761910 0.000523598762 0.200000000000 0.050000000000 1.7750000 3.4250000 1.0750000 1.7750000 3.4250000 1.0750000
147 1 1 0.000523598761910 0.000523598762 0.200000000000 0.050000000000 0.1750000 2.4250000 0.9750000 0.1750000 2.4250000 0.9750000
148 1 1 0.000523598761910 0.000523598762 0.200000000000 0.050000000000 0.1750000 3.4250000 0.9750000 0.1750000 3.4250000 0.9750000
149 1 1 0.000523598761910 0.000523598762 0.200000000000 0.050000000000 1.7750000 2.4250000 0.9750000 1.7750000 2.4250000 0.9750000
150 1 1 0.000523598761910 0.000523598762 0.200000000000 0.050000000000 1.7750000 3.4250000 0.9750000 1.7750000 3.4250000 0.9750000
151 1 1 0.000523598761910 0.000523598762 0.200000000000 0.050000000000 0.1750000 2.5250000 0.5750000 0.1750000 2.5250000 0.5750000
152 1 1 0.000523598761910 0.000523598762 0.200000000000 0.050000000000 0.1750000 2.5250000 1.3750000 0.1750000 2.5250000 1.3750000
153 1 1 0.000523598761910 0.000523598762 0.200000000000 0.050000000000 0.1750000 3.3250000 0.5750000 0.1750000 3.3250000 0.5750000
154 1 1 0.000523598761910 0.000523598762 0.200000000000 0.050000000000 0.1750000 3.3250000 1.3750000 0.1750000 3.3250000 1.3750000
155 1 1 0.000523598761910 0.000523598762 0.200000000000 0.050000000000 1.7750000 2.5250000 0.5750000 1.7750000 2.5250000 0.5750000
156 1 1 0.000523598761910 0.000523598762 0.200000000000 0.050000000000 1.7750000 2.5250000 1.3750000 1.7750000 2.5250000 1.3750000
157 1 1 0.000523598761910 0.000523598762 0.200000000000 0.050000000000 1.7750000 3.3250000 0.5750000 1.7750000 3.3250000 0.5750000
158 1 1 0.000523598761910 0.000523598762 0.200000000000 0.050000000000 1.7750000 3.3250000 1.3750000 1.7750000 3.3250000 1.3750000
159 1 1 0.000523598761910 0.000523598762 0.200000000000 0.050000000000 0.1750000 2.5250000 0.6750000 0.1750000 2.5250000 0.6750000
160 1 1 0.000523598761910 0.000523598762 0.200000000000 0.050000000000 0.1750000 2.5250000 1.2750000 0.1750000 2.5250000 1.2750000
161 1 1 0.000523598761910 0.000523598762 0.200000000000 0.050000000000 0.1750000 3.3250000 0.6750000 0.1750000 3.3250000 0.6750000
162 1 1 0.000523598761910 0.000523598762 0.200000000000 0.050000000000 0.1750000 3.3250000 1.2750000 0.1750000 3.3250000 1.2750000
163 1 1 0.000523598761910 0.000523598762 0.200000000000 0.050000000000 1.7750000 2.5250000 0.6750000 1.7750000 2.5250000 0.6750000
164 1 1 0.000523598761910 0.000523598762 0.200000000000 0.050000000000 1.7750000 2.5250000 1.2750000 1.7750000 2.5250000 1.2750000
165 1 1 0.000523598761910 0.000523598762 0.200000000000 0.050000000000 1.7750000 3.3250000 0.6750000 1.7750000 3.3250000 0.6750000
166 1 1 0.000523598761910 0.000523598762 0.200000000000 0.050000000000 1.7750000 3.3250000 1.2750000 1.7750000 3.3250000 1.2750000
167 1 1 0.000523598761910 0.000523598762 0.200000000000 0.050000000000 0.1750000 2.5250000 0.7750000 0.1750000 2.5250000 0.7750000
168 1 1 0.000523598761910 0.000523598762 0.200000000000 0.050000000000 0.1750000 2.5250000 1.1750000 0.1750000 2.5250000 1.1750000
169 1 1 0.000523598761910 0.000523598762 0.200000000000 0.050000000000 0.1750000 3.3250000 0.7750000 0.1750000 3.3250000 0.7750000
170 1 1 0.000523598761910 0.000523598762 0.200000000000 0.050000000000 0.1750000 3.3250000 1.1750000 0.1750000 3.3250000 1.1750000
171 1 1 0.000523598761910 0.000523598762 0.200000000000 0.050000000000 1.7750000 2.5250000 0.7750000 1.7750000 2.5250000 0.7750000
172 1 1 0.000523598761910 0.000523598762 0.200000000000 0.050000000000 1.7750000 2.5250000 1.1750000 1.7750000 2.5250000 1.1750000
173 1 1 0.000523598761910 0.000523598762 0.200000000000 0.050000000000 1.7750000 3.3250000 0.7750000 1.7750000 3.3250000 0.7750000
174 1 1 0.000523598761910 0.000523598762 0.200000000000 0.050000000000 1.7750000 3.3250000 1.1750000 1.7750000 3.3250000 1.1750000
175 1 1 0.000523598761910 0.000523598762 0.200000000000 0.050000000000 0.1750000 2.5250000 0.8750000 0.1750000 2.5250000 0.8750000
176 1 1 0.000523598761910 0.000523598762 0.200000000000 0.050000000000 0.1750000 2.5250000 1.0750000 0.1750000 2.5250000 1.0750000
177 1 1 0.000523598761910 0.000523598762 0.200000000000 0.050000000000 0.1750000 3.3250000 0.8750000 0.1750000 3.3250000 0.8750000
178 1 1 0.000523598761910 0.000523598762 0.200000000000 0.050000000000 0.1750000 3.3250000 1.0750000 0.1750000 3.3250000 1.0750000
179 1 1 0.000523598761910 0.000523598762 0.200000000000 0.050000000000 1.7750000 2.5250000 0.8750000 1.7750000 2.5250000 0.8750000
180 1 1 0.000523598761910 0.000523598762 0.200000000000 0.050000000000 1.7750000 2.5250000 1.0750000 1.7750000 2.5250000 1.0750000
181 1 1 0.000523598761910 0.000523598762 0.200000000000 0.050000000000 1.7750000 3.3250000 0.8750000 1.7750000 3.3250000 0.8750000
182 1 1 0.000523598761910 0.000523598762 0.200000000000 0.050000000000 1.7750000 3.3250000 1.0750000 1.7750000 3.3250000 1.0750000
183 1 1 0.000523598761910 0.000523598762 0.200000000000 0.050000000000 0.1750000 2.5250000 0.9750000 0.1750000 2.5250000 0.9750000
184 1 1 0.000523598761910 0.000523598762 0.200000000000 0.050000000000 0.1750000 3.3250000 0.9750000 0.1750000 3.3250000 0.9750000
185 1 1 0.000523598761910 0.000523598762 0.200000000000 0.050000000000 1.7750000 2.5250000 0.9750000 1.7750000 2.5250000 0.9750000
186 1 1 0.000523598761910 0.000523598762 0.200000000000 0.050000000000 1.7750000 3.3250000 0.9750000 1.7750000 3.3250000 0.9750000
187 1 1 0.000523598761910 0.000523598762 0.200000000000 0.050000000000 0.1750000 2.6250000 0.4750000 0.1750000 2.6250000 0.4750000
188 1 1 0.000523598761910 0.000523598762 0.200000000000 0.050000000000 0.1750000 2.6250000 1.4750000 0.1750000 2.6250000 1.4750000
189 1 1 0.000523598761910 0.000523598762 0.200000000000 0.050000000000 0.1750000 3.2250000 0.4750000 0.1750000 3.2250000 0.4750000
190 1 1 0.000523598761910 0.000523598762 0.200000000000 0.050000000000 0.1750000 3.2250000 1.4750000 0.1750000 3.2250000 1.4750000
191 1 1 0.000523598761910 0.000523598762 0.200000000000 0.050000000000 1.7750000 2.6250000 0.4750000 1.7750000 2.6250000 0.4750000
192 1 1 0.000523598761910 0.000523598762 0.200000000000 0.050000000000 1.7750000 2.6250000 1.4750000 1.7750000 2.6250000 1.4750000
193 1 1 0.000523598761910 0.000523598762 0.200000000000 0.050000000000 1.7750000 3.2250000 0.4750000 1.7750000 3.2250000 0.4750000
194 1 1 0.000523598761910 0.000523598762 0.200000000000 0.050000000000 1.7750000 3.2250000 1.4750000 1.7750000 3.2250000 1.4750000
195 1 1 0.000523598761910 0.000523598762 0.200000000000 0.050000000000 0.1750000 2.6250000 0.5750000 0.1750000 2.6250000 0.5750000
196 1 1 0.000523598761910 0.000523598762 0.200000000000 0.050000000000 0.1750000 2.6250000 1.3750000 0.1750000 2.6250000 1.3750000
197 1 1 0.000523598761910 0.000523598762 0.200000000000 0.050000000000 0.1750000 3.2250000 0.5750000 0.1750000 3.2250000 0.5750000
198 1 1 0.000523598761910 0.000523598762 0.200000000000 0.050000000000 0.1750000 3.2250000 1.3750000 0.1750000 3.2250000 1.3750000
199 1 1 0.000523598761910 0.000523598762 0.200000000000 0.050000000000 1.7750000 2.6250000 0.5750000 1.7750000 2.6250000 0.5750000
200 1 1 0.000523598761910 0.000523598762 0.200000000000 0.050000000000 1.7750000 2.6250000 1.3750000 1.7750000 2.6250000 1.3750000
201 1 1 0.000523598761910 0.000523598762 0.200000000000 0.050000000000 1.7750000 3.2250000 0.5750000 1.7750000 3.2250000 0.5750000
202 1 1 0.000523598761910 0.000523598762 0.200000000000 0.050000000000 1.7750000 3.2250000 1.3750000 1.7750000 3.2250000 1.3750000
203 1 1 0.000523598761910 0.000523598762 0.200000000000 0.050000000000 0.1750000 2.6250000 0.6750000 0.1750000 2.6250000 0.6750000
204 1 1 0.000523598761910 0.000523598762 0.200000000000 0.050000000000 0.1750000 2.6250000 1.2750000 0.1750000 2.6250000 1.2750000
205 1 1 0.000523598761910 0.000523598762 0.200000000000 0.050000000000 0.1750000 3.2250000 0.6750000 0.1750000 3.2250000 0.6750000
206 1 1 0.000523598761910 0.000523598762 0.200000000000 0.050000000000 0.1750000 3.2250000 1.2750000 0.1750000 3.2250000 1.2750000
207 1 1 0.000523598761910 0.000523598762 0.200000000000 0.050000000000 1.7750000 2.6250000 0.6750000 1.7750000 2.6250000 0.6750000
208 1 1 0.000523598761910 0.000523598762 0.200000000000 0.050000000000 1.7750000 2.6250000 1.2750000 1.7750000 2.6250000 1.2750000
209 1 1 0.000523598761910 0.000523598762 0.200000000000 0.050000000000 1.7750000 3.2250000 0.6750000 1.7750000 3.2250000 0.6750000
210 1 1 0.000523598761910 0.000523598762 0.200000000000 0.050000000000 1.7750000 3.2250000 1.2750000 1.7750000 3.2250000 1.2750000
211 1 1 0.000523598761910 0.000523598762 0.200000000000 0.050000000000 0.1750000 2.6250000 0.7750000 0.1750000 2.6250000 0.7750000
212 1 1 0.000523598761910 0.000523598762 0.200000000000 0.050000000000 0.1750000 2.6250000 1.1750000 0.1750000 2.6250000 1.1750000
213 1 1 0.000523598761910 0.000523598762 0.200000000000 0.050000000000 0.1750000 3.2250000 0.7750000 0.1750000 3.2250000 0.7750000
214 1 1 0.000523598761910 0.000523598762 0.200000000000 0.050000000000 0.1750000 3.2250000 1.1750000 0.1750000 3.2250000 1.1750000
215 1 1 0.000523598761910 0.000523598762 0.200000000000 0.050000000000 1.7750000 2.6250000 0.7750000 1.7750000 2.6250000 0.7750000
216 1 1 0.000523598761910 0.000523598762 0.200000000000 0.050000000000 1.7750000 2.6250000 1.1750000 1.7750000 2.6250000 1.1750000
217 1 1 0.000523598761910 0.000523598762 0.200000000000 0.050000000000 1.7750000 3.2250000 0.7750000 1.7750000 3.2250000 0.7750000
218 1 1 0.000523598761910 0.000523598762 0.200000000000 0.050000000000 1.7750000 3.2250000 1.1750000 1.7750000 3.2250000 1.1750000
219 1 1 0.000523598761910 0.000523598762 0.200000000000 0.050000000000 0.1750000 2.6250000 0.8750000 0.1750000 2.6250000 0.8750000
220 1 1 0.000523598761910 0.000523598762 0.200000000000 0.050000000000 0.1750000 2.6250000 1.0750000 0.1750000 2.6250000 1.0750000
221 1 1 0.000523598761910 0.000523598762 0.200000000000 0.050000000000 0.1750000 3.2250000 0.8750000 0.1750000 3.2250000 0.8750000
222 1 1 0.000523598761910 0.000523598762 0.200000000000 0.050000000000 0.1750000 3.2250000 1.0750000 0.1750000 3.2250000 1.0750000
223 1 1 0.000523598761910 0.000523598762 0.200000000000 0.050000000000 1.7750000 2.6250000 0.8750000 1.7750000 2.6250000 0.8750000
224 1 1 0.000523598761910 0.000523598762 0.200000000000 0.050000000000 1.7750000 2.6250000 1.0750000 1.7750000 2.6250000 1.0750000
225 1 1 0.000523598761910 0.000523598762 0.200000000000 0.050000000000 1.7750000 3.2250000 0.8750000 1.7750000 3.2250000 0.8750000
226 1 1 0.000523598761910 0.000523598762 0.200000000000 0.050000000000 1.7750000 3.2250000 1.0750000 1.7750000 3.2250000 1.0750000
227 1 1 0.000523598761910 0.000523598762 0.200000000000 0.050000000000 0.1750000 2.6250000 0.9750000 0.1750000 2.6250000 0.9750000
228 1 1 0.000523598761910 0.000523598762 0.200000000000 0.050000000000 0.1750000 3.2250000 0.9750000 0.1750000 3.2250000 0.9750000