LIGGGHTS data file

6185	atoms

5 atom types

0 6.074999999999999 xlo xhi
0 6.074999999999999 ylo yhi
0 2.225 zlo zhi

Atoms

1 1 1 0.001767145821446 0.001767145821 0.300000000000 0.075000000000 0.1125000 2.7375000 0.7125000 0.1125000 2.7375000 0.7125000
2 1 1 0.001767145821446 0.001767145821 0.300000000000 0.075000000000 0.1125000 2.7375000 1.3125000 0.1125000 2.7375000 1.3125000
3 1 1 0.001767145821446 0.001767145821 0.300000000000 0.075000000000 0.1125000 3.3375000 0.7125000 0.1125000 3.3375000 0.7125000
4 1 1 0.001767145821446 0.001767145821 0.300000000000 0.075000000000 0.1125000 3.3375000 1.3125000 0.1125000 3.3375000 1.3125000
5 1 1 0.001767145821446 0.001767145821 0.300000000000 0.075000000000 1.9125000 2.7375000 0.7125000 1.9125000 2.7375000 0.7125000
6 1 1 0.001767145821446 0.001767145821 0.300000000000 0.075000000000 1.9125000 2.7375000 1.3125000 1.9125000 2.7375000 1.3125000
7 1 1 0.001767145821446 0.001767145821 0.300000000000 0.075000000000 1.9125000 3.3375000 0.7125000 1.9125000 3.3375000 0.7125000
8 1 1 0.001767145821446 0.001767145821 0.300000000000 0.075000000000 1.9125000 3.3375000 1.3125000 1.9125000 3.3375000 1.3125000
9 1 1 0.001767145821446 0.001767145821 0.300000000000 0.075000000000 0.1125000 2.7375000 0.8625000 0.1125000 2.7375000 0.8625000
10 1 1 0.001767145821446 0.001767145821 0.300000000000 0.075000000000 0.1125000 2.7375000 1.1625000 0.1125000 2.7375000 1.1625000
11 1 1 0.001767145821446 0.001767145821 0.300000000000 0.075000000000 0.1125000 3.3375000 0.8625000 0.1125000 3.3375000 0.8625000
12 1 1 0.001767145821446 0.001767145821 0.300000000000 0.075000000000 0.1125000 3.3375000 1.1625000 0.1125000 3.3375000 1.1625000
13 1 1 0.001767145821446 0.001767145821 0.300000000000 0.075000000000 1.9125000 2.7375000 0.8625000 1.9125000 2.7375000 0.8625000
14 1 1 0.001767145821446 0.001767145821 0.300000000000 0.075000000000 1.9125000 2.7375000 1.1625000 1.9125000 2.7375000 1.1625000
15 1 1 0.001767145821446 0.001767145821 0.300000000000 0.075000000000 1.9125000 3.3375000 0.8625000 1.9125000 3.3375000 0.8625000
16 1 1 0.001767145821446 0.001767145821 0.300000000000 0.075000000000 1.9125000 3.3375000 1.1625000 1.9125000 3.3375000 1.1625000
17 1 1 0.001767145821446 0.001767145821 0.300000000000 0.075000000000 0.1125000 2.7375000 1.0125000 0.1125000 2.7375000 1.0125000
18 1 1 0.001767145821446 0.001767145821 0.300000000000 0.075000000000 0.1125000 3.3375000 1.0125000 0.1125000 3.3375000 1.0125000
19 1 1 0.001767145821446 0.001767145821 0.300000000000 0.075000000000 1.9125000 2.7375000 1.0125000 1.9125000 2.7375000 1.0125000
20 1 1 0.001767145821446 0.001767145821 0.300000000000 0.075000000000 1.9125000 3.3375000 1.0125000 1.9125000 3.3375000 1.0125000
21 1 1 0.001767145821446 0.001767145821 0.300000000000 0.075000000000 0.1125000 2.8875000 0.7125000 0.1125000 2.8875000 0.7125000
22 1 1 0.001767145821446 0.001767145821 0.300000000000 0.075000000000 0.1125000 2.8875000 1.3125000 0.1125000 2.8875000 1.3125000
23 1 1 0.001767145821446 0.001767145821 0.300000000000 0.075000000000 0.1125000 3.1875000 0.7125000 0.1125000 3.1875000 0.7125000
24 1 1 0.001767145821446 0.001767145821 0.300000000000 0.075000000000 0.1125000 3.1875000 1.3125000 0.1125000 3.1875000 1.3125000
25 1 1 0.001767145821446 0.001767145821 0.300000000000 0.075000000000 1.9125000 2.8875000 0.7125000 1.9125000 2.8875000 0.7125000
26 1 1 0.001767145821446 0.001767145821 0.300000000000 0.075000000000 1.9125000 2.8875000 1.3125000 1.9125000 2.8875000 1.3125000
27 1 1 0.001767145821446 0.001767145821 0.300000000000 0.075000000000 1.9125000 3.1875000 0.7125000 1.9125000 3.1875000 0.7125000
28 1 1 0.001767145821446 0.001767145821 0.300000000000 0.075000000000 1.9125000 3.1875000 1.3125000 1.9125000 3.1875000 1.3125000
29 1 1 0.001767145821446 0.001767145821 0.300000000000 0.075000000000 0.1125000 2.8875000 0.8625000 0.1125000 2.8875000 0.8625000
30 1 1 0.001767145821446 0.001767145821 0.300000000000 0.075000000000 0.1125000 2.8875000 1.1625000 0.1125000 2.8875000 1.1625000
31 1 1 0.001767145821446 0.001767145821 0.300000000000 0.075000000000 0.1125000 3.1875000 0.8625000 0.1125000 3.1875000 0.8625000
32 1 1 0.001767145821446 0.001767145821 0.300000000000 0.075000000000 0.1125000 3.1875000 1.1625000 0.1125000 3.1875000 1.1625000
33 1 1 0.001767145821446 0.001767145821 0.300000000000 0.075000000000 1.9125000 2.8875000 0.8625000 1.9125000 2.8875000 0.8625000
34 1 1 0.001767145821446 0.001767145821 0.300000000000 0.075000000000 1.9125000 2.8875000 1.1625000 1.9125000 2.8875000 1.1625000
35 1 1 0.001767145821446 0.001767145821 0.300000000000 0.075000000000 1.9125000 3.1875000 0.8625000 1.9125000 3.1875000 0.8625000
36 1 1 0.001767145821446 0.001767145821 0.300000000000 0.075000000000 1.9125000 3.1875000 1.1625000 1.9125000 3.1875000 1.1625000
37 1 1 0.001767145821446 0.001767145821 0.300000000000 0.075000000000 0.1125000 2.8875000 1.0125000 0.1125000 2.8875000 1.0125000
38 1 1 0.001767145821446 0.001767145821 0.300000000000 0.075000000000 0.1125000 3.1875000 1.0125000 0.1125000 3.1875000 1.0125000
39 1 1 0.001767145821446 0.001767145821 0.300000000000 0.075000000000 1.9125000 2.8875000 1.0125000 1.9125000 2.8875000 1.0125000
40 1 1 0.001767145821446 0.001767145821 0.300000000000 0.075000000000 1.9125000 3.1875000 1.0125000 1.9125000 3.1875000 1.0125000
41 1 1 0.001767145821446 0.001767145821 0.300000000000 0.075000000000 0.1125000 3.0375000 0.7125000 0.1125000 3.0375000 0.7125000
42 1 1 0.001767145821446 0.001767145821 0.300000000000 0.075000000000 0.1125000 3.0375000 1.3125000 0.1125000 3.0375000 1.3125000
43 1 1 0.001767145821446 0.001767145821 0.300000000000 0.075000000000 1.9125000 3.0375000 0.7125000 1.9125000 3.0375000 0.7125000
44 1 1 0.001767145821446 0.001767145821 0.300000000000 0.075000000000 1.9125000 3.0375000 1.3125000 1.9125000 3.0375000 1.3125000
45 1 1 0.001767145821446 0.001767145821 0.300000000000 0.075000000000 0.1125000 3.0375000 0.8625000 0.1125000 3.0375000 0.8625000
46 1 1 0.001767145821446 0.001767145821 0.300000000000 0.075000000000 0.1125000 3.0375000 1.1625000 0.1125000 3.0375000 1.1625000
47 1 1 0.001767145821446 0.001767145821 0.300000000000 0.075000000000 1.9125000 3.0375000 0.8625000 1.9125000 3.0375000 0.8625000
48 1 1 0.001767145821446 0.001767145821 0.300000000000 0.075000000000 1.9125000 3.0375000 1.1625000 1.9125000 3.0375000 1.1625000
49 1 1 0.001767145821446 0.001767145821 0.300000000000 0.075000000000 0.1125000 3.0375000 1.0125000 0.1125000 3.0375000 1.0125000
50 1 1 0.001767145821446 0.001767145821 0.300000000000 0.075000000000 1.9125000 3.0375000 1.0125000 1.9125000 3.0375000 1.0125000
51 1 1 0.001767145821446 0.001767145821 0.300000000000 0.075000000000 0.2625000 2.4375000 0.8625000 0.2625000 2.4375000 0.8625000
52 1 1 0.001767145821446 0.001767145821 0.300000000000 0.075000000000 0.2625000 2.4375000 1.1625000 0.2625000 2.4375000 1.1625000
53 1 1 0.001767145821446 0.001767145821 0.300000000000 0.075000000000 0.2625000 3.6375000 0.8625000 0.2625000 3.6375000 0.8625000
54 1 1 0.001767145821446 0.001767145821 0.300000000000 0.075000000000 0.2625000 3.6375000 1.1625000 0.2625000 3.6375000 1.1625000
55 1 1 0.001767145821446 0.001767145821 0.300000000000 0.075000000000 1.7625000 2.4375000 0.8625000 1.7625000 2.4375000 0.8625000
56 1 1 0.001767145821446 0.001767145821 0.300000000000 0.075000000000 1.7625000 2.4375000 1.1625000 1.7625000 2.4375000 1.1625000
57 1 1 0.001767145821446 0.001767145821 0.300000000000 0.075000000000 1.7625000 3.6375000 0.8625000 1.7625000 3.6375000 0.8625000
58 1 1 0.001767145821446 0.001767145821 0.300000000000 0.075000000000 1.7625000 3.6375000 1.1625000 1.7625000 3.6375000 1.1625000
59 1 1 0.001767145821446 0.001767145821 0.300000000000 0.075000000000 0.2625000 2.4375000 1.0125000 0.2625000 2.4375000 1.0125000
60 1 1 0.001767145821446 0.001767145821 0.300000000000 0.075000000000 0.2625000 3.6375000 1.0125000 0.2625000 3.6375000 1.0125000
61 1 1 0.001767145821446 0.001767145821 0.300000000000 0.075000000000 1.7625000 2.4375000 1.0125000 1.7625000 2.4375000 1.0125000
62 1 1 0.001767145821446 0.001767145821 0.300000000000 0.075000000000 1.7625000 3.6375000 1.0125000 1.7625000 3.6375000 1.0125000
63 1 1 0.001767145821446 0.001767145821 0.300000000000 0.075000000000 0.2625000 2.5875000 0.5625000 0.2625000 2.5875000 0.5625000
64 1 1 0.001767145821446 0.001767145821 0.300000000000 0.075000000000 0.2625000 2.5875000 1.4625000 0.2625000 2.5875000 1.4625000
65 1 1 0.001767145821446 0.001767145821 0.300000000000 0.075000000000 0.2625000 3.4875000 0.5625000 0.2625000 3.4875000 0.5625000
66 1 1 0.001767145821446 0.001767145821 0.300000000000 0.075000000000 0.2625000 3.4875000 1.4625000 0.2625000 3.4875000 1.4625000
67 1 1 0.001767145821446 0.001767145821 0.300000000000 0.075000000000 1.7625000 2.5875000 0.5625000 1.7625000 2.5875000 0.5625000
68 1 1 0.001767145821446 0.001767145821 0.300000000000 0.075000000000 1.7625000 2.5875000 1.4625000 1.7625000 2.5875000 1.4625000
69 1 1 0.001767145821446 0.001767145821 0.300000000000 0.075000000000 1.7625000 3.4875000 0.5625000 1.7625000 3.4875000 0.5625000
70 1 1 0.001767145821446 0.001767145821 0.300000000000 0.075000000000 1.7625000 3.4875000 1.4625000 1.7625000 3.4875000 1.4625000
71 1 1 0.001767145821446 0.001767145821 0.300000000000 0.075000000000 0.2625000 2.5875000 0.7125000 0.2625000 2.5875000 0.7125000
72 1 1 0.001767145821446 0.001767145821 0.300000000000 0.075000000000 0.2625000 2.5875000 1.3125000 0.2625000 2.5875000 1.3125000
73 1 1 0.001767145821446 0.001767145821 0.300000000000 0.075000000000 0.2625000 3.4875000 0.7125000 0.2625000 3.4875000 0.7125000
74 1 1 0.001767145821446 0.001767145821 0.300000000000 0.075000000000 0.2625000 3.4875000 1.3125000 0.2625000 3.4875000 1.3125000
75 1 1 0.001767145821446 0.001767145821 0.300000000000 0.075000000000 1.7625000 2.5875000 0.7125000 1.7625000 2.5875000 0.7125000
76 1 1 0.001767145821446 0.001767145821 0.300000000000 0.075000000000 1.7625000 2.5875000 1.3125000 1.7625000 2.5875000 1.3125000
77 1 1 0.001767145821446 0.001767145821 0.300000000000 0.075000000000 1.7625000 3.4875000 0.7125000 1.7625000 3.4875000 0.7125000
78 1 1 0.001767145821446 0.001767145821 0.300000000000 0.075000000000 1.7625000 3.4875000 1.3125000 1.7625000 3.4875000 1.3125000
79 1 1 0.001767145821446 0.001767145821 0.300000000000 0.075000000000 0.2625000 2.5875000 0.8625000 0.2625000 2.5875000 0.8625000
80 1 1 0.001767145821446 0.001767145821 0.300000000000 0.075000000000 0.2625000 2.5875000 1.1625000 0.2625000 2.5875000 1.1625000
81 1 1 0.001767145821446 0.001767145821 0.300000000000 0.075000000000 0.2625000 3.4875000 0.8625000 0.2625000 3.4875000 0.8625000
82 1 1 0.001767145821446 0.001767145821 0.300000000000 0.075000000000 0.2625000 3.4875000 1.1625000 0.2625000 3.4875000 1.1625000
83 1 1 0.001767145821446 0.001767145821 0.300000000000 0.075000000000 1.7625000 2.5875000 0.8625000 1.7625000 2.5875000 0.8625000
84 1 1 0.001767145821446 0.001767145821 0.300000000000 0.075000000000 1.7625000 2.5875000 1.1625000 1.7625000 2.5875000 1.1625000
85 1 1 0.001767145821446 0.001767145821 0.300000000000 0.075000000000 1.7625000 3.4875000 0.8625000 1.7625000 3.4875000 0.8625000
86 1 1 0.001767145821446 0.001767145821 0.300000000000 0.075000000000 1.7625000 3.4875000 1.1625000 1.7625000 3.4875000 1.1625000
87 1 1 0.001767145821446 0.001767145821 0.300000000000 0.075000000000 0.2625000 2.5875000 1.0125000 0.2625000 2.5875000 1.0125000
88 1 1 0.001767145821446 0.001767145821 0.300000000000 0.075000000000 0.2625000 3.4875000 1.0125000 0.2625000 3.4875000 1.0125000
89 1 1 0.001767145821446 0.001767145821 0.300000000000 0.075000000000 1.7625000 2.5875000 1.0125000 1.7625000 2.5875000 1.0125000
90 1 1 0.001767145821446 0.001767145821 0.300000000000 0.075000000000 1.7625000 3.4875000 1.0125000 1.7625000 3.4875000 1.0125000
91 1 1 0.001767145821446 0.001767145821 0.300000000000 0.075000000000 0.2625000 2.7375000 0.5625000 0.2625000 2.7375000 0.5625000
92 1 1 0.001767145821446 0.001767145821 0.300000000000 0.075000000000 0.2625000 2.7375000 1.4625000 0.2625000 2.7375000 1.4625000
93 1 1 0.001767145821446 0.001767145821 0.300000000000 0.075000000000 0.2625000 3.3375000 0.5625000 0.2625000 3.3375000 0.5625000
94 1 1 0.001767145821446 0.001767145821 0.300000000000 0.075000000000 0.2625000 3.3375000 1.4625000 0.2625000 3.3375000 1.4625000
95 1 1 0.001767145821446 0.001767145821 0.300000000000 0.075000000000 1.7625000 2.7375000 0.5625000 1.7625000 2.7375000 0.5625000
96 1 1 0.001767145821446 0.001767145821 0.300000000000 0.075000000000 1.7625000 2.7375000 1.4625000 1.7625000 2.7375000 1.4625000
97 1 1 0.001767145821446 0.001767145821 0.300000000000 0.075000000000 1.7625000 3.3375000 0.5625000 1.7625000 3.3375000 0.5625000
98 1 1 0.001767145821446 0.001767145821 0.300000000000 0.075000000000 1.7625000 3.3375000 1.4625000 1.7625000 3.3375000 1.4625000
99 1 1 0.001767145821446 0.001767145821 0.300000000000 0.075000000000 0.2625000 2.7375000 0.7125000 0.2625000 2.7375000 0.7125000
100 1 1 0.001767145821446 0.001767145821 0.300000000000 0.075000000000 0.2625000 2.7375000 1.3125000 0.2625000 2.7375000 1.3125000
101 1 1 0.001767145821446 0.001767145821 0.300000000000 0.075000000000 0.2625000 3.3375000 0.7125000 0.2625000 3.3375000 0.7125000
102 1 1 0.001767145821446 0.001767145821 0.300000000000 0.075000000000 0.2625000 3.3375000 1.3125000 0.2625000 3.3375000 1.3125000
103 1 1 0.001767145821446 0.001767145821 0.300000000000 0.075000000000 1.7625000 2.7375000 0.7125000 1.7625000 2.7375000 0.7125000
104 1 1 0.001767145821446 0.001767145821 0.300000000000 0.075000000000 1.7625000 2.7375000 1.3125000 1.7625000 2.7375000 1.3125000
105 1 1 0.001767145821446 0.001767145821 0.300000000000 0.075000000000 1.7625000 3.3375000 0.7125000 1.7625000 3.3375000 0.7125000
106 1 1 0.001767145821446 0.001767145821 0.300000000000 0.075000000000 1.7625000 3.3375000 1.3125000 1.7625000 3.3375000 1.3125000
107 1 1 0.001767145821446 0.001767145821 0.300000000000 0.075000000000 0.2625000 2.7375000 0.8625000 0.2625000 2.7375000 0.8625000
108 1 1 0.001767145821446 0.001767145821 0.300000000000 0.075000000000 0.2625000 2.7375000 1.1625000 0.2625000 2.7375000 1.1625000
109 1 1 0.001767145821446 0.001767145821 0.300000000000 0.075000000000 0.2625000 3.3375000 0.8625000 0.2625000 3.3375000 0.8625000
110 1 1 0.001767145821446 0.001767145821 0.300000000000 0.075000000000 0.2625000 3.3375000 1.1625000 0.2625000 3.3375000 1.1625000
111 1 1 0.001767145821446 0.001767145821 0.300000000000 0.075000000000 1.7625000 2.7375000 0.8625000 1.7625000 2.7375000 0.8625000
112 1 1 0.001767145821446 0.001767145821 0.300000000000 0.075000000000 1.7625000 2.7375000 1.1625000 1.7625000 2.7375000 1.1625000
113 1 1 0.001767145821446 0.001767145821 0.300000000000 0.075000000000 1.7625000 3.3375000 0.8625000 1.7625000 3.3375000 0.8625000
114 1 1 0.001767145821446 0.001767145821 0.300000000000 0.075000000000 1.7625000 3.3375000 1.1625000 1.7625000 3.3375000 1.1625000
115 1 1 0.001767145821446 0.001767145821 0.300000000000 0.075000000000 0.2625000 2.7375000 1.0125000 0.2625000 2.7375000 1.0125000
116 1 1 0.001767145821446 0.001767145821 0.300000000000 0.075000000000 0.2625000 3.3375000 1.0125000 0.2625000 3.3375000 1.0125000
117 1 1 0.001767145821446 0.001767145821 0.300000000000 0.075000000000 1.7625000 2.7375000 1.0125000 1.7625000 2.7375000 1.0125000
118 1 1 0.001767145821446 0.001767145821 0.300000000000 0.075000000000 1.7625000 3.3375000 1.0125000 1.7625000 3.3375000 1.0125000
119 1 1 0.001767145821446 0.001767145821 0.300000000000 0.075000000000 0.2625000 2.8875000 0.4125000 0.2625000 2.8875000 0.4125000
120 1 1 0.001767145821446 0.001767145821 0.300000000000 0.075000000000 0.2625000 2.8875000 1.6125000 0.2625000 2.8875000 1.6125000
121 1 1 0.001767145821446 0.001767145821 0.300000000000 0.075000000000 0.2625000 3.1875000 0.4125000 0.2625000 3.1875000 0.4125000
122 1 1 0.001767145821446 0.001767145821 0.300000000000 0.075000000000 0.2625000 3.1875000 1.6125000 0.2625000 3.1875000 1.6125000
123 1 1 0.001767145821446 0.001767145821 0.300000000000 0.075000000000 1.7625000 2.8875000 0.4125000 1.7625000 2.8875000 0.4125000
124 1 1 0.001767145821446 0.001767145821 0.300000000000 0.075000000000 1.7625000 2.8875000 1.6125000 1.7625000 2.8875000 1.6125000
125 1 1 0.001767145821446 0.001767145821 0.300000000000 0.075000000000 1.7625000 3.1875000 0.4125000 1.7625000 3.1875000 0.4125000
126 1 1 0.001767145821446 0.001767145821 0.300000000000 0.075000000000 1.7625000 3.1875000 1.6125000 1.7625000 3.1875000 1.6125000
127 1 1 0.001767145821446 0.001767145821 0.300000000000 0.075000000000 0.2625000 2.8875000 0.5625000 0.2625000 2.8875000 0.5625000
128 1 1 0.001767145821446 0.001767145821 0.300000000000 0.075000000000 0.2625000 2.8875000 1.4625000 0.2625000 2.8875000 1.4625000
129 1 1 0.001767145821446 0.001767145821 0.300000000000 0.075000000000 0.2625000 3.1875000 0.5625000 0.2625000 3.1875000 0.5625000
130 1 1 0.001767145821446 0.001767145821 0.300000000000 0.075000000000 0.2625000 3.1875000 1.4625000 0.2625000 3.1875000 1.4625000
131 1 1 0.001767145821446 0.001767145821 0.300000000000 0.075000000000 1.7625000 2.8875000 0.5625000 1.7625000 2.8875000 0.5625000
132 1 1 0.001767145821446 0.001767145821 0.300000000000 0.075000000000 1.7625000 2.8875000 1.4625000 1.7625000 2.8875000 1.4625000
133 1 1 0.001767145821446 0.001767145821 0.300000000000 0.075000000000 1.7625000 3.1875000 0.5625000 1.7625000 3.1875000 0.5625000
134 1 1 0.001767145821446 0.001767145821 0.300000000000 0.075000000000 1.7625000 3.1875000 1.4625000 1.7625000 3.1875000 1.4625000
135 1 1 0.001767145821446 0.001767145821 0.300000000000 0.075000000000 0.2625000 2.8875000 0.7125000 0.2625000 2.8875000 0.7125000
136 1 1 0.001767145821446 0.001767145821 0.300000000000 0.075000000000 0.2625000 2.8875000 1.3125000 0.2625000 2.8875000 1.3125000
137 1 1 0.001767145821446 0.001767145821 0.300000000000 0.075000000000 0.2625000 3.1875000 0.7125000 0.2625000 3.1875000 0.7125000
138 1 1 0.001767145821446 0.001767145821 0.300000000000 0.075000000000 0.2625000 3.1875000 1.3125000 0.2625000 3.1875000 1.3125000
139 1 1 0.001767145821446 0.001767145821 0.300000000000 0.075000000000 1.7625000 2.8875000 0.7125000 1.7625000 2.8875000 0.7125000
140 1 1 0.001767145821446 0.001767145821 0.300000000000 0.075000000000 1.7625000 2.8875000 1.3125000 1.7625000 2.8875000 1.3125000
141 1 1 0.001767145821446 0.001767145821 0.300000000000 0.075000000000 1.7625000 3.1875000 0.7125000 1.7625000 3.1875000 0.7125000
142 1 1 0.001767145821446 0.001767145821 0.300000000000 0.075000000000 1.7625000 3.1875000 1.3125000 1.7625000 3.1875000 1.3125000
143 1 1 0.001767145821446 0.001767145821 0.300000000000 0.075000000000 0.2625000 2.8875000 0.8625000 0.2625000 2.8875000 0.8625000
144 1 1 0.001767145821446 0.001767145821 0.300000000000 0.075000000000 0.2625000 2.8875000 1.1625000 0.2625000 2.8875000 1.1625000
145 1 1 0.001767145821446 0.001767145821 0.300000000000 0.075000000000 0.2625000 3.1875000 0.8625000 0.2625000 3.1875000 0.8625000
146 1 1 0.001767145821446 0.001767145821 0.300000000000 0.075000000000 0.2625000 3.1875000 1.1625000 0.2625000 3.1875000 1.1625000
147 1 1 0.001767145821446 0.001767145821 0.300000000000 0.075000000000 1.7625000 2.8875000 0.8625000 1.7625000 2.8875000 0.8625000
148 1 1 0.001767145821446 0.001767145821 0.300000000000 0.075000000000 1.7625000 2.8875000 1.1625000 1.7625000 2.8875000 1.1625000
149 1 1 0.001767145821446 0.001767145821 0.300000000000 0.075000000000 1.7625000 3.1875000 0.8625000 1.7625000 3.1875000 0.8625000
150 1 1 0.001767145821446 0.001767145821 0.300000000000 0.075000000000 1.7625000 3.1875000 1.1625000 1.7625000 3.1875000 1.1625000
151 1 1 0.001767145821446 0.001767145821 0.300000000000 0.075000000000 0.2625000 2.8875000 1.0125000 0.2625000 2.8875000 1.0125000
152 1 1 0.001767145821446 0.001767145821 0.300000000000 0.075000000000 0.2625000 3.1875000 1.0125000 0.2625000 3.1875000 1.0125000
153 1 1 0.001767145821446 0.001767145821 0.300000000000 0.075000000000 1.7625000 2.8875000 1.0125000 1.7625000 2.8875000 1.0125000
154 1 1 0.001767145821446 0.001767145821 0.300000000000 0.075000000000 1.7625000 3.1875000 1.0125000 1.7625000 3.1875000 1.0125000
155 1 1 0.001767145821446 0.001767145821 0.300000000000 0.075000000000 0.2625000 3.0375000 0.4125000 0.2625000 3.0375000 0.4125000
156 1 1 0.001767145821446 0.001767145821 0.300000000000 0.075000000000 0.2625000 3.0375000 1.6125000 0.2625000 3.0375000 1.6125000
157 1 1 0.001767145821446 0.001767145821 0.300000000000 0.075000000000 1.7625000 3.0375000 0.4125000 1.7625000 3.0375000 0.4125000
158 1 1 0.001767145821446 0.001767145821 0.300000000000 0.075000000000 1.7625000 3.0375000 1.6125000 1.7625000 3.0375000 1.6125000
159 1 1 0.001767145821446 0.001767145821 0.300000000000 0.075000000000 0.2625000 3.0375000 0.5625000 0.2625000 3.0375000 0.5625000
160 1 1 0.001767145821446 0.001767145821 0.300000000000 0.075000000000 0.2625000 3.0375000 1.4625000 0.2625000 3.0375000 1.4625000
161 1 1 0.001767145821446 0.001767145821 0.300000000000 0.075000000000 1.7625000 3.0375000 0.5625000 1.7625000 3.0375000 0.5625000
162 1 1 0.001767145821446 0.001767145821 0.300000000000 0.075000000000 1.7625000 3.0375000 1.4625000 1.7625000 3.0375000 1.4625000
163 1 1 0.001767145821446 0.001767145821 0.300000000000 0.075000000000 0.2625000 3.0375000 0.7125000 0.2625000 3.0375000 0.7125000
164 1 1 0.001767145821446 0.001767145821 0.300000000000 0.075000000000 0.2625000 3.0375000 1.3125000 0.2625000 3.0375000 1.3125000
165 1 1 0.001767145821446 0.001767145821 0.300000000000 0.075000000000 1.7625000 3.0375000 0.7125000 1.7625000 3.0375000 0.7125000
166 1 1 0.001767145821446 0.001767145821 0.300000000000 0.075000000000 1.7625000 3.0375000 1.3125000 1.7625000 3.0375000 1.3125000
167 1 1 0.001767145821446 0.001767145821 0.300000000000 0.075000000000 0.2625000 3.0375000 0.8625000 0.2625000 3.0375000 0.8625000
168 1 1 0.001767145821446 0.001767145821 0.300000000000 0.075000000000 0.2625000 3.0375000 1.1625000 0.2625000 3.0375000 1.1625000
169 1 1 0.001767145821446 0.001767145821 0.300000000000 0.075000000000 1.7625000 3.0375000 0.8625000 1.7625000 3.0375000 0.8625000
170 1 1 0.001767145821446 0.001767145821 0.300000000000 0.075000000000 1.7625000 3.0375000 1.1625000 1.7625000 3.0375000 1.1625000
171 1 1 0.001767145821446 0.001767145821 0.300000000000 0.075000000000 0.2625000 3.0375000 1.0125000 0.2625000 3.0375000 1.0125000
172 1 1 0.001767145821446 0.001767145821 0.300000000000 0.075000000000 1.7625000 3.0375000 1.0125000 1.7625000 3.0375000 1.0125000
173 1 1 0.001767145821446 0.001767145821 0.300000000000 0.075000000000 0.4125000 2.2875000 0.8625000 0.4125000 2.2875000 0.8625000
174 1 1 0.001767145821446 0.001767145821 0.300000000000 0.075000000000 0.4125000 2.2875000 1.1625000 0.4125000 2.2875000 1.1625000
175 1 1 0.001767145821446 0.001767145821 0.300000000000 0.075000000000 0.4125000 3.7875000 0.8625000 0.4125000 3.7875000 0.8625000
176 1 1 0.001767145821446 0.001767145821 0.300000000000 0.075000000000 0.4125000 3.7875000 1.1625000 0.4125000 3.7875000 1.1625000
177 1 1 0.001767145821446 0.001767145821 0.300000000000 0.075000000000 1.6125000 2.2875000 0.8625000 1.6125000 2.2875000 0.8625000
178 1 1 0.001767145821446 0.001767145821 0.300000000000 0.075000000000 1.6125000 2.2875000 1.1625000 1.6125000 2.2875000 1.1625000
179 1 1 0.001767145821446 0.001767145821 0.300000000000 0.075000000000 1.6125000 3.7875000 0.8625000 1.6125000 3.7875000 0.8625000
180 1 1 0.001767145821446 0.001767145821 0.300000000000 0.075000000000 1.6125000 3.7875000 1.1625000 1.6125000 3.7875000 1.1625000
181 1 1 0.001767145821446 0.001767145821 0.300000000000 0.075000000000 0.4125000 2.2875000 1.0125000 0.4125000 2.2875000 1.0125000
182 1 1 0.001767145821446 0.001767145821 0.300000000000 0.075000000000 0.4125000 3.7875000 1.0125000 0.4125000 3.7875000 1.0125000
183 1 1 0.001767145821446 0.001767145821 0.300000000000 0.075000000000 1.6125000 2.2875000 1.0125000 1.6125000 2.2875000 1.0125000
184 1 1 0.001767145821446 0.001767145821 0.300000000000 0.075000000000 1.6125000 3.7875000 1.0125000 1.6125000 3.7875000 1.0125000
185 1 1 0.001767145821446 0.001767145821 0.300000000000 0.075000000000 0.4125000 2.4375000 0.5625000 0.4125000 2.4375000 0.5625000
186 1 1 0.001767145821446 0.001767145821 0.300000000000 0.075000000000 0.4125000 2.4375000 1.4625000 0.4125000 2.4375000 1.4625000
187 1 1 0.001767145821446 0.001767145821 0.300000000000 0.075000000000 0.4125000 3.6375000 0.5625000 0.4125000 3.6375000 0.5625000
188 1 1 0.001767145821446 0.001767145821 0.300000000000 0.075000000000 0.4125000 3.6375000 1.4625000 0.4125000 3.6375000 1.4625000
189 1 1 0.001767145821446 0.001767145821 0.300000000000 0.075000000000 1.6125000 2.4375000 0.5625000 1.6125000 2.4375000 0.5625000
190 1 1 0.001767145821446 0.001767145821 0.300000000000 0.075000000000 1.6125000 2.4375000 1.4625000 1.6125000 2.4375000 1.4625000
191 1 1 0.001767145821446 0.001767145821 0.300000000000 0.075000000000 1.6125000 3.6375000 0.5625000 1.6125000 3.6375000 0.5625000
192 1 1 0.001767145821446 0.001767145821 0.300000000000 0.075000000000 1.6125000 3.6375000 1.4625000 1.6125000 3.6375000 1.4625000
193 1 1 0.001767145821446 0.001767145821 0.300000000000 0.075000000000 0.4125000 2.4375000 0.7125000 0.4125000 2.4375000 0.7125000
194 1 1 0.001767145821446 0.001767145821 0.300000000000 0.075000000000 0.4125000 2.4375000 1.3125000 0.4125000 2.4375000 1.3125000
195 1 1 0.001767145821446 0.001767145821 0.300000000000 0.075000000000 0.4125000 3.6375000 0.7125000 0.4125000 3.6375000 0.7125000
196 1 1 0.001767145821446 0.001767145821 0.300000000000 0.075000000000 0.4125000 3.6375000 1.3125000 0.4125000 3.6375000 1.3125000
197 1 1 0.001767145821446 0.001767145821 0.300000000000 0.075000000000 1.6125000 2.4375000 0.7125000 1.6125000 2.4375000 0.7125000
198 1 1 0.001767145821446 0.001767145821 0.300000000000 0.075000000000 1.6125000 2.4375000 1.3125000 1.6125000 2.4375000 1.3125000
199 1 1 0.001767145821446 0.001767145821 0.300000000000 0.075000000000 1.6125000 3.6375000 0.7125000 1.6125000 3.6375000 0.7125000
200 1 1 0.001767145821446 0.001767145821 0.300000000000 0.075000000000 1.6125000 3.6375000 1.3125000 1.6125000 3.6375000 1.3125000
201 1 1 0.001767145821446 0.001767145821 0.300000000000 0.075000000000 0.4125000 2.4375000 0.8625000 0.4125000 2.4375000 0.8625000
202 1 1 0.001767145821446 0.001767145821 0.300000000000 0.075000000000 0.4125000 2.4375000 1.1625000 0.4125000 2.4375000 1.1625000
203 1 1 0.001767145821446 0.001767145821 0.300000000000 0.075000000000 0.4125000 3.6375000 0.8625000 0.4125000 3.6375000 0.8625000
204 1 1 0.001767145821446 0.001767145821 0.300000000000 0.075000000000 0.4125000 3.6375000 1.1625000 0.4125000 3.6375000 1.1625000
205 1 1 0.001767145821446 0.001767145821 0.300000000000 0.075000000000 1.6125000 2.4375000 0.8625000 1.6125000 2.4375000 0.8625000
206 1 1 0.001767145821446 0.001767145821 0.300000000000 0.075000000000 1.6125000 2.4375000 1.1625000 1.6125000 2.4375000 1.1625000
207 1 1 0.001767145821446 0.001767145821 0.300000000000 0.075000000000 1.6125000 3.6375000 0.8625000 1.6125000 3.6375000 0.8625000
208 1 1 0.001767145821446 0.001767145821 0.300000000000 0.075000000000 1.6125000 3.6375000 1.1625000 1.6125000 3.6375000 1.1625000
209 1 1 0.001767145821446 0.001767145821 0.300000000000 0.075000000000 0.4125000 2.4375000 1.0125000 0.4125000 2.4375000 1.0125000
210 1 1 0.001767145821446 0.001767145821 0.300000000000 0.075000000000 0.4125000 3.6375000 1.0125000 0.4125000 3.6375000 1.0125000
211 1 1 0.001767145821446 0.001767145821 0.300000000000 0.075000000000 1.6125000 2.4375000 1.0125000 1.6125000 2.4375000 1.0125000
212 1 1 0.001767145821446 0.001767145821 0.300000000000 0.075000000000 1.6125000 3.6375000 1.0125000 1.6125000 3.6375000 1.0125000
213 1 1 0.001767145821446 0.001767145821 0.300000000000 0.075000000000 0.4125000 2.5875000 0.4125000 0.4125000 2.5875000 0.4125000
214 1 1 0.001767145821446 0.001767145821 0.300000000000 0.075000000000 0.4125000 2.5875000 1.6125000 0.4125000 2.5875000 1.6125000
215 1 1 0.001767145821446 0.001767145821 0.300000000000 0.075000000000 0.4125000 3.4875000 0.4125000 0.4125000 3.4875000 0.4125000
216 1 1 0.001767145821446 0.001767145821 0.300000000000 0.075000000000 0.4125000 3.4875000 1.6125000 0.4125000 3.4875000 1.6125000
217 1 1 0.001767145821446 0.001767145821 0.300000000000 0.075000000000 1.6125000 2.5875000 0.4125000 1.6125000 2.5875000 0.4125000
218 1 1 0.001767145821446 0.001767145821 0.300000000000 0.075000000000 1.6125000 2.5875000 1.6125000 1.6125000 2.5875000 1.6125000
219 1 1 0.001767145821446 0.001767145821 0.300000000000 0.075000000000 1.6125000 3.4875000 0.4125000 1.6125000 3.4875000 0.4125000
220 1 1 0.001767145821446 0.001767145821 0.300000000000 0.075000000000 1.6125000 3.4875000 1.6125000 1.6125000 3.4875000 1.6125000
221 1 1 0.001767145821446 0.001767145821 0.300000000000 0.075000000000 0.4125000 2.5875000 0.5625000 0.4125000 2.5875000 0.5625000
222 1 1 0.001767145821446 0.001767145821 0.300000000000 0.075000000000 0.4125000 2.5875000 1.4625000 0.4125000 2.5875000 1.4625000
223 1 1 0.001767145821446 0.001767145821 0.300000000000 0.075000000000 0.4125000 3.4875000 0.5625000 0.4125000 3.4875000 0.5625000
224 1 1 0.001767145821446 0.001767145821 0.300000000000 0.075000000000 0.4125000 3.4875000 1.4625000 0.4125000 3.4875000 1.4625000
225 1 1 0.001767145821446 0.001767145821 0.300000000000 0.075000000000 1.6125000 2.5875000 0.5625000 1.6125000 2.5875000 0.5625000
226 1 1 0.001767145821446 0.001767145821 0.300000000000 0.075000000000 1.6125000 2.5875000 1.4625000 1.6125000 2.5875000 1.4625000
227 1 1 0.001767145821446 0.001767145821 0.300000000000 0.075000000000 1.6125000 3.4875000 0.5625000 1.6125000 3.4875000 0.5625000
228 1 1 0.001767145821446 0.001767145821 0.300000000000 0.075000000000 1.6125000 3.4875000 1.4625000 1.6125000 3.4875000 1.4625000