LIGGGHTS data file

1255	atoms

5 atom types

0 5.625 xlo xhi
0 5.625 ylo yhi
0 2.375 zlo zhi

Atoms

1 1 1 0.008181230654844 0.008181230655 0.500000000000 0.125000000000 0.1875000 2.3125000 0.6875000 0.1875000 2.3125000 0.6875000
2 1 1 0.008181230654844 0.008181230655 0.500000000000 0.125000000000 0.1875000 2.3125000 1.1875000 0.1875000 2.3125000 1.1875000
3 1 1 0.008181230654844 0.008181230655 0.500000000000 0.125000000000 0.1875000 3.3125000 0.6875000 0.1875000 3.3125000 0.6875000
4 1 1 0.008181230654844 0.008181230655 0.500000000000 0.125000000000 0.1875000 3.3125000 1.1875000 0.1875000 3.3125000 1.1875000
5 1 1 0.008181230654844 0.008181230655 0.500000000000 0.125000000000 1.6875000 2.3125000 0.6875000 1.6875000 2.3125000 0.6875000
6 1 1 0.008181230654844 0.008181230655 0.500000000000 0.125000000000 1.6875000 2.3125000 1.1875000 1.6875000 2.3125000 1.1875000
7 1 1 0.008181230654844 0.008181230655 0.500000000000 0.125000000000 1.6875000 3.3125000 0.6875000 1.6875000 3.3125000 0.6875000
8 1 1 0.008181230654844 0.008181230655 0.500000000000 0.125000000000 1.6875000 3.3125000 1.1875000 1.6875000 3.3125000 1.1875000
9 1 1 0.008181230654844 0.008181230655 0.500000000000 0.125000000000 0.1875000 2.3125000 0.9375000 0.1875000 2.3125000 0.9375000
10 1 1 0.008181230654844 0.008181230655 0.500000000000 0.125000000000 0.1875000 3.3125000 0.9375000 0.1875000 3.3125000 0.9375000
11 1 1 0.008181230654844 0.008181230655 0.500000000000 0.125000000000 1.6875000 2.3125000 0.9375000 1.6875000 2.3125000 0.9375000
12 1 1 0.008181230654844 0.008181230655 0.500000000000 0.125000000000 1.6875000 3.3125000 0.9375000 1.6875000 3.3125000 0.9375000
13 1 1 0.008181230654844 0.008181230655 0.500000000000 0.125000000000 0.1875000 2.5625000 0.4375000 0.1875000 2.5625000 0.4375000
14 1 1 0.008181230654844 0.008181230655 0.500000000000 0.125000000000 0.1875000 2.5625000 1.4375000 0.1875000 2.5625000 1.4375000
15 1 1 0.008181230654844 0.008181230655 0.500000000000 0.125000000000 0.1875000 3.0625000 0.4375000 0.1875000 3.0625000 0.4375000
16 1 1 0.008181230654844 0.008181230655 0.500000000000 0.125000000000 0.1875000 3.0625000 1.4375000 0.1875000 3.0625000 1.4375000
17 1 1 0.008181230654844 0.008181230655 0.500000000000 0.125000000000 1.6875000 2.5625000 0.4375000 1.6875000 2.5625000 0.4375000
18 1 1 0.008181230654844 0.008181230655 0.500000000000 0.125000000000 1.6875000 2.5625000 1.4375000 1.6875000 2.5625000 1.4375000
19 1 1 0.008181230654844 0.008181230655 0.500000000000 0.125000000000 1.6875000 3.0625000 0.4375000 1.6875000 3.0625000 0.4375000
20 1 1 0.008181230654844 0.008181230655 0.500000000000 0.125000000000 1.6875000 3.0625000 1.4375000 1.6875000 3.0625000 1.4375000
21 1 1 0.008181230654844 0.008181230655 0.500000000000 0.125000000000 0.1875000 2.5625000 0.6875000 0.1875000 2.5625000 0.6875000
22 1 1 0.008181230654844 0.008181230655 0.500000000000 0.125000000000 0.1875000 2.5625000 1.1875000 0.1875000 2.5625000 1.1875000
23 1 1 0.008181230654844 0.008181230655 0.500000000000 0.125000000000 0.1875000 3.0625000 0.6875000 0.1875000 3.0625000 0.6875000
24 1 1 0.008181230654844 0.008181230655 0.500000000000 0.125000000000 0.1875000 3.0625000 1.1875000 0.1875000 3.0625000 1.1875000
25 1 1 0.008181230654844 0.008181230655 0.500000000000 0.125000000000 1.6875000 2.5625000 0.6875000 1.6875000 2.5625000 0.6875000
26 1 1 0.008181230654844 0.008181230655 0.500000000000 0.125000000000 1.6875000 2.5625000 1.1875000 1.6875000 2.5625000 1.1875000
27 1 1 0.008181230654844 0.008181230655 0.500000000000 0.125000000000 1.6875000 3.0625000 0.6875000 1.6875000 3.0625000 0.6875000
28 1 1 0.008181230654844 0.008181230655 0.500000000000 0.125000000000 1.6875000 3.0625000 1.1875000 1.6875000 3.0625000 1.1875000
29 1 1 0.008181230654844 0.008181230655 0.500000000000 0.125000000000 0.1875000 2.5625000 0.9375000 0.1875000 2.5625000 0.9375000
30 1 1 0.008181230654844 0.008181230655 0.500000000000 0.125000000000 0.1875000 3.0625000 0.9375000 0.1875000 3.0625000 0.9375000
31 1 1 0.008181230654844 0.008181230655 0.500000000000 0.125000000000 1.6875000 2.5625000 0.9375000 1.6875000 2.5625000 0.9375000
32 1 1 0.008181230654844 0.008181230655 0.500000000000 0.125000000000 1.6875000 3.0625000 0.9375000 1.6875000 3.0625000 0.9375000
33 1 1 0.008181230654844 0.008181230655 0.500000000000 0.125000000000 0.1875000 2.8125000 0.4375000 0.1875000 2.8125000 0.4375000
34 1 1 0.008181230654844 0.008181230655 0.500000000000 0.125000000000 0.1875000 2.8125000 1.4375000 0.1875000 2.8125000 1.4375000
35 1 1 0.008181230654844 0.008181230655 0.500000000000 0.125000000000 1.6875000 2.8125000 0.4375000 1.6875000 2.8125000 0.4375000
36 1 1 0.008181230654844 0.008181230655 0.500000000000 0.125000000000 1.6875000 2.8125000 1.4375000 1.6875000 2.8125000 1.4375000
37 1 1 0.008181230654844 0.008181230655 0.500000000000 0.125000000000 0.1875000 2.8125000 0.6875000 0.1875000 2.8125000 0.6875000
38 1 1 0.008181230654844 0.008181230655 0.500000000000 0.125000000000 0.1875000 2.8125000 1.1875000 0.1875000 2.8125000 1.1875000
39 1 1 0.008181230654844 0.008181230655 0.500000000000 0.125000000000 1.6875000 2.8125000 0.6875000 1.6875000 2.8125000 0.6875000
40 1 1 0.008181230654844 0.008181230655 0.500000000000 0.125000000000 1.6875000 2.8125000 1.1875000 1.6875000 2.8125000 1.1875000
41 1 1 0.008181230654844 0.008181230655 0.500000000000 0.125000000000 0.1875000 2.8125000 0.9375000 0.1875000 2.8125000 0.9375000
42 1 1 0.008181230654844 0.008181230655 0.500000000000 0.125000000000 1.6875000 2.8125000 0.9375000 1.6875000 2.8125000 0.9375000
43 1 1 0.008181230654844 0.008181230655 0.500000000000 0.125000000000 0.4375000 2.0625000 0.6875000 0.4375000 2.0625000 0.6875000
44 1 1 0.008181230654844 0.008181230655 0.500000000000 0.125000000000 0.4375000 2.0625000 1.1875000 0.4375000 2.0625000 1.1875000
45 1 1 0.008181230654844 0.008181230655 0.500000000000 0.125000000000 0.4375000 3.5625000 0.6875000 0.4375000 3.5625000 0.6875000
46 1 1 0.008181230654844 0.008181230655 0.500000000000 0.125000000000 0.4375000 3.5625000 1.1875000 0.4375000 3.5625000 1.1875000
47 1 1 0.008181230654844 0.008181230655 0.500000000000 0.125000000000 1.4375000 2.0625000 0.6875000 1.4375000 2.0625000 0.6875000
48 1 1 0.008181230654844 0.008181230655 0.500000000000 0.125000000000 1.4375000 2.0625000 1.1875000 1.4375000 2.0625000 1.1875000
49 1 1 0.008181230654844 0.008181230655 0.500000000000 0.125000000000 1.4375000 3.5625000 0.6875000 1.4375000 3.5625000 0.6875000
50 1 1 0.008181230654844 0.008181230655 0.500000000000 0.125000000000 1.4375000 3.5625000 1.1875000 1.4375000 3.5625000 1.1875000
51 1 1 0.008181230654844 0.008181230655 0.500000000000 0.125000000000 0.4375000 2.0625000 0.9375000 0.4375000 2.0625000 0.9375000
52 1 1 0.008181230654844 0.008181230655 0.500000000000 0.125000000000 0.4375000 3.5625000 0.9375000 0.4375000 3.5625000 0.9375000
53 1 1 0.008181230654844 0.008181230655 0.500000000000 0.125000000000 1.4375000 2.0625000 0.9375000 1.4375000 2.0625000 0.9375000
54 1 1 0.008181230654844 0.008181230655 0.500000000000 0.125000000000 1.4375000 3.5625000 0.9375000 1.4375000 3.5625000 0.9375000
55 1 1 0.008181230654844 0.008181230655 0.500000000000 0.125000000000 0.4375000 2.3125000 0.4375000 0.4375000 2.3125000 0.4375000
56 1 1 0.008181230654844 0.008181230655 0.500000000000 0.125000000000 0.4375000 2.3125000 1.4375000 0.4375000 2.3125000 1.4375000
57 1 1 0.008181230654844 0.008181230655 0.500000000000 0.125000000000 0.4375000 3.3125000 0.4375000 0.4375000 3.3125000 0.4375000
58 1 1 0.008181230654844 0.008181230655 0.500000000000 0.125000000000 0.4375000 3.3125000 1.4375000 0.4375000 3.3125000 1.4375000
59 1 1 0.008181230654844 0.008181230655 0.500000000000 0.125000000000 1.4375000 2.3125000 0.4375000 1.4375000 2.3125000 0.4375000
60 1 1 0.008181230654844 0.008181230655 0.500000000000 0.125000000000 1.4375000 2.3125000 1.4375000 1.4375000 2.3125000 1.4375000
61 1 1 0.008181230654844 0.008181230655 0.500000000000 0.125000000000 1.4375000 3.3125000 0.4375000 1.4375000 3.3125000 0.4375000
62 1 1 0.008181230654844 0.008181230655 0.500000000000 0.125000000000 1.4375000 3.3125000 1.4375000 1.4375000 3.3125000 1.4375000
63 1 1 0.008181230654844 0.008181230655 0.500000000000 0.125000000000 0.4375000 2.3125000 0.6875000 0.4375000 2.3125000 0.6875000
64 1 1 0.008181230654844 0.008181230655 0.500000000000 0.125000000000 0.4375000 2.3125000 1.1875000 0.4375000 2.3125000 1.1875000
65 1 1 0.008181230654844 0.008181230655 0.500000000000 0.125000000000 0.4375000 3.3125000 0.6875000 0.4375000 3.3125000 0.6875000
66 1 1 0.008181230654844 0.008181230655 0.500000000000 0.125000000000 0.4375000 3.3125000 1.1875000 0.4375000 3.3125000 1.1875000
67 1 1 0.008181230654844 0.008181230655 0.500000000000 0.125000000000 1.4375000 2.3125000 0.6875000 1.4375000 2.3125000 0.6875000
68 1 1 0.008181230654844 0.008181230655 0.500000000000 0.125000000000 1.4375000 2.3125000 1.1875000 1.4375000 2.3125000 1.1875000
69 1 1 0.008181230654844 0.008181230655 0.500000000000 0.125000000000 1.4375000 3.3125000 0.6875000 1.4375000 3.3125000 0.6875000
70 1 1 0.008181230654844 0.008181230655 0.500000000000 0.125000000000 1.4375000 3.3125000 1.1875000 1.4375000 3.3125000 1.1875000
71 1 1 0.008181230654844 0.008181230655 0.500000000000 0.125000000000 0.4375000 2.3125000 0.9375000 0.4375000 2.3125000 0.9375000
72 1 1 0.008181230654844 0.008181230655 0.500000000000 0.125000000000 0.4375000 3.3125000 0.9375000 0.4375000 3.3125000 0.9375000
73 1 1 0.008181230654844 0.008181230655 0.500000000000 0.125000000000 1.4375000 2.3125000 0.9375000 1.4375000 2.3125000 0.9375000
74 1 1 0.008181230654844 0.008181230655 0.500000000000 0.125000000000 1.4375000 3.3125000 0.9375000 1.4375000 3.3125000 0.9375000
75 1 1 0.008181230654844 0.008181230655 0.500000000000 0.125000000000 0.4375000 2.5625000 0.1875000 0.4375000 2.5625000 0.1875000
76 1 1 0.008181230654844 0.008181230655 0.500000000000 0.125000000000 0.4375000 2.5625000 1.6875000 0.4375000 2.5625000 1.6875000
77 1 1 0.008181230654844 0.008181230655 0.500000000000 0.125000000000 0.4375000 3.0625000 0.1875000 0.4375000 3.0625000 0.1875000
78 1 1 0.008181230654844 0.008181230655 0.500000000000 0.125000000000 0.4375000 3.0625000 1.6875000 0.4375000 3.0625000 1.6875000
79 1 1 0.008181230654844 0.008181230655 0.500000000000 0.125000000000 1.4375000 2.5625000 0.1875000 1.4375000 2.5625000 0.1875000
80 1 1 0.008181230654844 0.008181230655 0.500000000000 0.125000000000 1.4375000 2.5625000 1.6875000 1.4375000 2.5625000 1.6875000
81 1 1 0.008181230654844 0.008181230655 0.500000000000 0.125000000000 1.4375000 3.0625000 0.1875000 1.4375000 3.0625000 0.1875000
82 1 1 0.008181230654844 0.008181230655 0.500000000000 0.125000000000 1.4375000 3.0625000 1.6875000 1.4375000 3.0625000 1.6875000
83 1 1 0.008181230654844 0.008181230655 0.500000000000 0.125000000000 0.4375000 2.5625000 0.4375000 0.4375000 2.5625000 0.4375000
84 1 1 0.008181230654844 0.008181230655 0.500000000000 0.125000000000 0.4375000 2.5625000 1.4375000 0.4375000 2.5625000 1.4375000
85 1 1 0.008181230654844 0.008181230655 0.500000000000 0.125000000000 0.4375000 3.0625000 0.4375000 0.4375000 3.0625000 0.4375000
86 1 1 0.008181230654844 0.008181230655 0.500000000000 0.125000000000 0.4375000 3.0625000 1.4375000 0.4375000 3.0625000 1.4375000
87 1 1 0.008181230654844 0.008181230655 0.500000000000 0.125000000000 1.4375000 2.5625000 0.4375000 1.4375000 2.5625000 0.4375000
88 1 1 0.008181230654844 0.008181230655 0.500000000000 0.125000000000 1.4375000 2.5625000 1.4375000 1.4375000 2.5625000 1.4375000
89 1 1 0.008181230654844 0.008181230655 0.500000000000 0.125000000000 1.4375000 3.0625000 0.4375000 1.4375000 3.0625000 0.4375000
90 1 1 0.008181230654844 0.008181230655 0.500000000000 0.125000000000 1.4375000 3.0625000 1.4375000 1.4375000 3.0625000 1.4375000
91 1 1 0.008181230654844 0.008181230655 0.500000000000 0.125000000000 0.4375000 2.5625000 0.6875000 0.4375000 2.5625000 0.6875000
92 1 1 0.008181230654844 0.008181230655 0.500000000000 0.125000000000 0.4375000 2.5625000 1.1875000 0.4375000 2.5625000 1.1875000
93 1 1 0.008181230654844 0.008181230655 0.500000000000 0.125000000000 0.4375000 3.0625000 0.6875000 0.4375000 3.0625000 0.6875000
94 1 1 0.008181230654844 0.008181230655 0.500000000000 0.125000000000 0.4375000 3.0625000 1.1875000 0.4375000 3.0625000 1.1875000
95 1 1 0.008181230654844 0.008181230655 0.500000000000 0.125000000000 1.4375000 2.5625000 0.6875000 1.4375000 2.5625000 0.6875000
96 1 1 0.008181230654844 0.008181230655 0.500000000000 0.125000000000 1.4375000 2.5625000 1.1875000 1.4375000 2.5625000 1.1875000
97 1 1 0.008181230654844 0.008181230655 0.500000000000 0.125000000000 1.4375000 3.0625000 0.6875000 1.4375000 3.0625000 0.6875000
98 1 1 0.008181230654844 0.008181230655 0.500000000000 0.125000000000 1.4375000 3.0625000 1.1875000 1.4375000 3.0625000 1.1875000
99 1 1 0.008181230654844 0.008181230655 0.500000000000 0.125000000000 0.4375000 2.5625000 0.9375000 0.4375000 2.5625000 0.9375000
100 1 1 0.008181230654844 0.008181230655 0.500000000000 0.125000000000 0.4375000 3.0625000 0.9375000 0.4375000 3.0625000 0.9375000
101 1 1 0.008181230654844 0.008181230655 0.500000000000 0.125000000000 1.4375000 2.5625000 0.9375000 1.4375000 2.5625000 0.9375000
102 1 1 0.008181230654844 0.008181230655 0.500000000000 0.125000000000 1.4375000 3.0625000 0.9375000 1.4375000 3.0625000 0.9375000
103 1 1 0.008181230654844 0.008181230655 0.500000000000 0.125000000000 0.4375000 2.8125000 0.1875000 0.4375000 2.8125000 0.1875000
104 1 1 0.008181230654844 0.008181230655 0.500000000000 0.125000000000 0.4375000 2.8125000 1.6875000 0.4375000 2.8125000 1.6875000
105 1 1 0.008181230654844 0.008181230655 0.500000000000 0.125000000000 1.4375000 2.8125000 0.1875000 1.4375000 2.8125000 0.1875000
106 1 1 0.008181230654844 0.008181230655 0.500000000000 0.125000000000 1.4375000 2.8125000 1.6875000 1.4375000 2.8125000 1.6875000
107 1 1 0.008181230654844 0.008181230655 0.500000000000 0.125000000000 0.4375000 2.8125000 0.4375000 0.4375000 2.8125000 0.4375000
108 1 1 0.008181230654844 0.008181230655 0.500000000000 0.125000000000 0.4375000 2.8125000 1.4375000 0.4375000 2.8125000 1.4375000
109 1 1 0.008181230654844 0.008181230655 0.500000000000 0.125000000000 1.4375000 2.8125000 0.4375000 1.4375000 2.8125000 0.4375000
110 1 1 0.008181230654844 0.008181230655 0.500000000000 0.125000000000 1.4375000 2.8125000 1.4375000 1.4375000 2.8125000 1.4375000
111 1 1 0.008181230654844 0.008181230655 0.500000000000 0.125000000000 0.4375000 2.8125000 0.6875000 0.4375000 2.8125000 0.6875000
112 1 1 0.008181230654844 0.008181230655 0.500000000000 0.125000000000 0.4375000 2.8125000 1.1875000 0.4375000 2.8125000 1.1875000
113 1 1 0.008181230654844 0.008181230655 0.500000000000 0.125000000000 1.4375000 2.8125000 0.6875000 1.4375000 2.8125000 0.6875000
114 1 1 0.008181230654844 0.008181230655 0.500000000000 0.125000000000 1.4375000 2.8125000 1.1875000 1.4375000 2.8125000 1.1875000
115 1 1 0.008181230654844 0.008181230655 0.500000000000 0.125000000000 0.4375000 2.8125000 0.9375000 0.4375000 2.8125000 0.9375000
116 1 1 0.008181230654844 0.008181230655 0.500000000000 0.125000000000 1.4375000 2.8125000 0.9375000 1.4375000 2.8125000 0.9375000
117 1 1 0.008181230654844 0.008181230655 0.500000000000 0.125000000000 0.6875000 2.0625000 0.4375000 0.6875000 2.0625000 0.4375000
118 1 1 0.008181230654844 0.008181230655 0.500000000000 0.125000000000 0.6875000 2.0625000 1.4375000 0.6875000 2.0625000 1.4375000
119 1 1 0.008181230654844 0.008181230655 0.500000000000 0.125000000000 0.6875000 3.5625000 0.4375000 0.6875000 3.5625000 0.4375000
120 1 1 0.008181230654844 0.008181230655 0.500000000000 0.125000000000 0.6875000 3.5625000 1.4375000 0.6875000 3.5625000 1.4375000
121 1 1 0.008181230654844 0.008181230655 0.500000000000 0.125000000000 1.1875000 2.0625000 0.4375000 1.1875000 2.0625000 0.4375000
122 1 1 0.008181230654844 0.008181230655 0.500000000000 0.125000000000 1.1875000 2.0625000 1.4375000 1.1875000 2.0625000 1.4375000
123 1 1 0.008181230654844 0.008181230655 0.500000000000 0.125000000000 1.1875000 3.5625000 0.4375000 1.1875000 3.5625000 0.4375000
124 1 1 0.008181230654844 0.008181230655 0.500000000000 0.125000000000 1.1875000 3.5625000 1.4375000 1.1875000 3.5625000 1.4375000
125 1 1 0.008181230654844 0.008181230655 0.500000000000 0.125000000000 0.6875000 2.0625000 0.6875000 0.6875000 2.0625000 0.6875000
126 1 1 0.008181230654844 0.008181230655 0.500000000000 0.125000000000 0.6875000 2.0625000 1.1875000 0.6875000 2.0625000 1.1875000
127 1 1 0.008181230654844 0.008181230655 0.500000000000 0.125000000000 0.6875000 3.5625000 0.6875000 0.6875000 3.5625000 0.6875000
128 1 1 0.008181230654844 0.008181230655 0.500000000000 0.125000000000 0.6875000 3.5625000 1.1875000 0.6875000 3.5625000 1.1875000
129 1 1 0.008181230654844 0.008181230655 0.500000000000 0.125000000000 1.1875000 2.0625000 0.6875000 1.1875000 2.0625000 0.6875000
130 1 1 0.008181230654844 0.008181230655 0.500000000000 0.125000000000 1.1875000 2.0625000 1.1875000 1.1875000 2.0625000 1.1875000
131 1 1 0.008181230654844 0.008181230655 0.500000000000 0.125000000000 1.1875000 3.5625000 0.6875000 1.1875000 3.5625000 0.6875000
132 1 1 0.008181230654844 0.008181230655 0.500000000000 0.125000000000 1.1875000 3.5625000 1.1875000 1.1875000 3.5625000 1.1875000
133 1 1 0.008181230654844 0.008181230655 0.500000000000 0.125000000000 0.6875000 2.0625000 0.9375000 0.6875000 2.0625000 0.9375000
134 1 1 0.008181230654844 0.008181230655 0.500000000000 0.125000000000 0.6875000 3.5625000 0.9375000 0.6875000 3.5625000 0.9375000
135 1 1 0.008181230654844 0.008181230655 0.500000000000 0.125000000000 1.1875000 2.0625000 0.9375000 1.1875000 2.0625000 0.9375000
136 1 1 0.008181230654844 0.008181230655 0.500000000000 0.125000000000 1.1875000 3.5625000 0.9375000 1.1875000 3.5625000 0.9375000
137 1 1 0.008181230654844 0.008181230655 0.500000000000 0.125000000000 0.6875000 2.3125000 0.1875000 0.6875000 2.3125000 0.1875000
138 1 1 0.008181230654844 0.008181230655 0.500000000000 0.125000000000 0.6875000 2.3125000 1.6875000 0.6875000 2.3125000 1.6875000
139 1 1 0.008181230654844 0.008181230655 0.500000000000 0.125000000000 0.6875000 3.3125000 0.1875000 0.6875000 3.3125000 0.1875000
140 1 1 0.008181230654844 0.008181230655 0.500000000000 0.125000000000 0.6875000 3.3125000 1.6875000 0.6875000 3.3125000 1.6875000
141 1 1 0.008181230654844 0.008181230655 0.500000000000 0.125000000000 1.1875000 2.3125000 0.1875000 1.1875000 2.3125000 0.1875000
142 1 1 0.008181230654844 0.008181230655 0.500000000000 0.125000000000 1.1875000 2.3125000 1.6875000 1.1875000 2.3125000 1.6875000
143 1 1 0.008181230654844 0.008181230655 0.500000000000 0.125000000000 1.1875000 3.3125000 0.1875000 1.1875000 3.3125000 0.1875000
144 1 1 0.008181230654844 0.008181230655 0.500000000000 0.125000000000 1.1875000 3.3125000 1.6875000 1.1875000 3.3125000 1.6875000
145 1 1 0.008181230654844 0.008181230655 0.500000000000 0.125000000000 0.6875000 2.3125000 0.4375000 0.6875000 2.3125000 0.4375000
146 1 1 0.008181230654844 0.008181230655 0.500000000000 0.125000000000 0.6875000 2.3125000 1.4375000 0.6875000 2.3125000 1.4375000
147 1 1 0.008181230654844 0.008181230655 0.500000000000 0.125000000000 0.6875000 3.3125000 0.4375000 0.6875000 3.3125000 0.4375000
148 1 1 0.008181230654844 0.008181230655 0.500000000000 0.125000000000 0.6875000 3.3125000 1.4375000 0.6875000 3.3125000 1.4375000
149 1 1 0.008181230654844 0.008181230655 0.500000000000 0.125000000000 1.1875000 2.3125000 0.4375000 1.1875000 2.3125000 0.4375000
150 1 1 0.008181230654844 0.008181230655 0.500000000000 0.125000000000 1.1875000 2.3125000 1.4375000 1.1875000 2.3125000 1.4375000
151 1 1 0.008181230654844 0.008181230655 0.500000000000 0.125000000000 1.1875000 3.3125000 0.4375000 1.1875000 3.3125000 0.4375000
152 1 1 0.008181230654844 0.008181230655 0.500000000000 0.125000000000 1.1875000 3.3125000 1.4375000 1.1875000 3.3125000 1.4375000
153 1 1 0.008181230654844 0.008181230655 0.500000000000 0.125000000000 0.6875000 2.3125000 0.6875000 0.6875000 2.3125000 0.6875000
154 1 1 0.008181230654844 0.008181230655 0.500000000000 0.125000000000 0.6875000 2.3125000 1.1875000 0.6875000 2.3125000 1.1875000
155 1 1 0.008181230654844 0.008181230655 0.500000000000 0.125000000000 0.6875000 3.3125000 0.6875000 0.6875000 3.3125000 0.6875000
156 1 1 0.008181230654844 0.008181230655 0.500000000000 0.125000000000 0.6875000 3.3125000 1.1875000 0.6875000 3.3125000 1.1875000
157 1 1 0.008181230654844 0.008181230655 0.500000000000 0.125000000000 1.1875000 2.3125000 0.6875000 1.1875000 2.3125000 0.6875000
158 1 1 0.008181230654844 0.008181230655 0.500000000000 0.125000000000 1.1875000 2.3125000 1.1875000 1.1875000 2.3125000 1.1875000
159 1 1 0.008181230654844 0.008181230655 0.500000000000 0.125000000000 1.1875000 3.3125000 0.6875000 1.1875000 3.3125000 0.6875000
160 1 1 0.008181230654844 0.008181230655 0.500000000000 0.125000000000 1.1875000 3.3125000 1.1875000 1.1875000 3.3125000 1.1875000
161 1 1 0.008181230654844 0.008181230655 0.500000000000 0.125000000000 0.6875000 2.3125000 0.9375000 0.6875000 2.3125000 0.9375000
162 1 1 0.008181230654844 0.008181230655 0.500000000000 0.125000000000 0.6875000 3.3125000 0.9375000 0.6875000 3.3125000 0.9375000
163 1 1 0.008181230654844 0.008181230655 0.500000000000 0.125000000000 1.1875000 2.3125000 0.9375000 1.1875000 2.3125000 0.9375000
164 1 1 0.008181230654844 0.008181230655 0.500000000000 0.125000000000 1.1875000 3.3125000 0.9375000 1.1875000 3.3125000 0.9375000
165 1 1 0.008181230654844 0.008181230655 0.500000000000 0.125000000000 0.6875000 2.5625000 0.1875000 0.6875000 2.5625000 0.1875000
166 1 1 0.008181230654844 0.008181230655 0.500000000000 0.125000000000 0.6875000 2.5625000 1.6875000 0.6875000 2.5625000 1.6875000
167 1 1 0.008181230654844 0.008181230655 0.500000000000 0.125000000000 0.6875000 3.0625000 0.1875000 0.6875000 3.0625000 0.1875000
168 1 1 0.008181230654844 0.008181230655 0.500000000000 0.125000000000 0.6875000 3.0625000 1.6875000 0.6875000 3.0625000 1.6875000
169 1 1 0.008181230654844 0.008181230655 0.500000000000 0.125000000000 1.1875000 2.5625000 0.1875000 1.1875000 2.5625000 0.1875000
170 1 1 0.008181230654844 0.008181230655 0.500000000000 0.125000000000 1.1875000 2.5625000 1.6875000 1.1875000 2.5625000 1.6875000
171 1 1 0.008181230654844 0.008181230655 0.500000000000 0.125000000000 1.1875000 3.0625000 0.1875000 1.1875000 3.0625000 0.1875000
172 1 1 0.008181230654844 0.008181230655 0.500000000000 0.125000000000 1.1875000 3.0625000 1.6875000 1.1875000 3.0625000 1.6875000
173 1 1 0.008181230654844 0.008181230655 0.500000000000 0.125000000000 0.6875000 2.5625000 0.4375000 0.6875000 2.5625000 0.4375000
174 1 1 0.008181230654844 0.008181230655 0.500000000000 0.125000000000 0.6875000 2.5625000 1.4375000 0.6875000 2.5625000 1.4375000
175 1 1 0.008181230654844 0.008181230655 0.500000000000 0.125000000000 0.6875000 3.0625000 0.4375000 0.6875000 3.0625000 0.4375000
176 1 1 0.008181230654844 0.008181230655 0.500000000000 0.125000000000 0.6875000 3.0625000 1.4375000 0.6875000 3.0625000 1.4375000
177 1 1 0.008181230654844 0.008181230655 0.500000000000 0.125000000000 1.1875000 2.5625000 0.4375000 1.1875000 2.5625000 0.4375000
178 1 1 0.008181230654844 0.008181230655 0.500000000000 0.125000000000 1.1875000 2.5625000 1.4375000 1.1875000 2.5625000 1.4375000
179 1 1 0.008181230654844 0.008181230655 0.500000000000 0.125000000000 1.1875000 3.0625000 0.4375000 1.1875000 3.0625000 0.4375000
180 1 1 0.008181230654844 0.008181230655 0.500000000000 0.125000000000 1.1875000 3.0625000 1.4375000 1.1875000 3.0625000 1.4375000
181 1 1 0.008181230654844 0.008181230655 0.500000000000 0.125000000000 0.6875000 2.5625000 0.6875000 0.6875000 2.5625000 0.6875000
182 1 1 0.008181230654844 0.008181230655 0.500000000000 0.125000000000 0.6875000 2.5625000 1.1875000 0.6875000 2.5625000 1.1875000
183 1 1 0.008181230654844 0.008181230655 0.500000000000 0.125000000000 0.6875000 3.0625000 0.6875000 0.6875000 3.0625000 0.6875000
184 1 1 0.008181230654844 0.008181230655 0.500000000000 0.125000000000 0.6875000 3.0625000 1.1875000 0.6875000 3.0625000 1.1875000
185 1 1 0.008181230654844 0.008181230655 0.500000000000 0.125000000000 1.1875000 2.5625000 0.6875000 1.1875000 2.5625000 0.6875000
186 1 1 0.008181230654844 0.008181230655 0.500000000000 0.125000000000 1.1875000 2.5625000 1.1875000 1.1875000 2.5625000 1.1875000
187 1 1 0.008181230654844 0.008181230655 0.500000000000 0.125000000000 1.1875000 3.0625000 0.6875000 1.1875000 3.0625000 0.6875000
188 1 1 0.008181230654844 0.008181230655 0.500000000000 0.125000000000 1.1875000 3.0625000 1.1875000 1.1875000 3.0625000 1.1875000
189 1 1 0.008181230654844 0.008181230655 0.500000000000 0.125000000000 0.6875000 2.5625000 0.9375000 0.6875000 2.5625000 0.9375000
190 1 1 0.008181230654844 0.008181230655 0.500000000000 0.125000000000 0.6875000 3.0625000 0.9375000 0.6875000 3.0625000 0.9375000
191 1 1 0.008181230654844 0.008181230655 0.500000000000 0.125000000000 1.1875000 2.5625000 0.9375000 1.1875000 2.5625000 0.9375000
192 1 1 0.008181230654844 0.008181230655 0.500000000000 0.125000000000 1.1875000 3.0625000 0.9375000 1.1875000 3.0625000 0.9375000
193 1 1 0.008181230654844 0.008181230655 0.500000000000 0.125000000000 0.6875000 2.8125000 0.1875000 0.6875000 2.8125000 0.1875000
194 1 1 0.008181230654844 0.008181230655 0.500000000000 0.125000000000 0.6875000 2.8125000 1.6875000 0.6875000 2.8125000 1.6875000
195 1 1 0.008181230654844 0.008181230655 0.500000000000 0.125000000000 1.1875000 2.8125000 0.1875000 1.1875000 2.8125000 0.1875000
196 1 1 0.008181230654844 0.008181230655 0.500000000000 0.125000000000 1.1875000 2.8125000 1.6875000 1.1875000 2.8125000 1.6875000
197 1 1 0.008181230654844 0.008181230655 0.500000000000 0.125000000000 0.6875000 2.8125000 0.4375000 0.6875000 2.8125000 0.4375000
198 1 1 0.008181230654844 0.008181230655 0.500000000000 0.125000000000 0.6875000 2.8125000 1.4375000 0.6875000 2.8125000 1.4375000
199 1 1 0.008181230654844 0.008181230655 0.500000000000 0.125000000000 1.1875000 2.8125000 0.4375000 1.1875000 2.8125000 0.4375000
200 1 1 0.008181230654844 0.008181230655 0.500000000000 0.125000000000 1.1875000 2.8125000 1.4375000 1.1875000 2.8125000 1.4375000
201 1 1 0.008181230654844 0.008181230655 0.500000000000 0.125000000000 0.6875000 2.8125000 0.6875000 0.6875000 2.8125000 0.6875000
202 1 1 0.008181230654844 0.008181230655 0.500000000000 0.125000000000 0.6875000 2.8125000 1.1875000 0.6875000 2.8125000 1.1875000
203 1 1 0.008181230654844 0.008181230655 0.500000000000 0.125000000000 1.1875000 2.8125000 0.6875000 1.1875000 2.8125000 0.6875000
204 1 1 0.008181230654844 0.008181230655 0.500000000000 0.125000000000 1.1875000 2.8125000 1.1875000 1.1875000 2.8125000 1.1875000
205 1 1 0.008181230654844 0.008181230655 0.500000000000 0.125000000000 0.6875000 2.8125000 0.9375000 0.6875000 2.8125000 0.9375000
206 1 1 0.008181230654844 0.008181230655 0.500000000000 0.125000000000 1.1875000 2.8125000 0.9375000 1.1875000 2.8125000 0.9375000
207 1 1 0.008181230654844 0.008181230655 0.500000000000 0.125000000000 0.9375000 2.0625000 0.4375000 0.9375000 2.0625000 0.4375000
208 1 1 0.008181230654844 0.008181230655 0.500000000000 0.125000000000 0.9375000 2.0625000 1.4375000 0.9375000 2.0625000 1.4375000
209 1 1 0.008181230654844 0.008181230655 0.500000000000 0.125000000000 0.9375000 3.5625000 0.4375000 0.9375000 3.5625000 0.4375000
210 1 1 0.008181230654844 0.008181230655 0.500000000000 0.125000000000 0.9375000 3.5625000 1.4375000 0.9375000 3.5625000 1.4375000
211 1 1 0.008181230654844 0.008181230655 0.500000000000 0.125000000000 0.9375000 2.0625000 0.6875000 0.9375000 2.0625000 0.6875000
212 1 1 0.008181230654844 0.008181230655 0.500000000000 0.125000000000 0.9375000 2.0625000 1.1875000 0.9375000 2.0625000 1.1875000
213 1 1 0.008181230654844 0.008181230655 0.500000000000 0.125000000000 0.9375000 3.5625000 0.6875000 0.9375000 3.5625000 0.6875000
214 1 1 0.008181230654844 0.008181230655 0.500000000000 0.125000000000 0.9375000 3.5625000 1.1875000 0.9375000 3.5625000 1.1875000
215 1 1 0.008181230654844 0.008181230655 0.500000000000 0.125000000000 0.9375000 2.0625000 0.9375000 0.9375000 2.0625000 0.9375000
216 1 1 0.008181230654844 0.008181230655 0.500000000000 0.125000000000 0.9375000 3.5625000 0.9375000 0.9375000 3.5625000 0.9375000
217 1 1 0.008181230654844 0.008181230655 0.500000000000 0.125000000000 0.9375000 2.3125000 0.1875000 0.9375000 2.3125000 0.1875000
218 1 1 0.008181230654844 0.008181230655 0.500000000000 0.125000000000 0.9375000 2.3125000 1.6875000 0.9375000 2.3125000 1.6875000
219 1 1 0.008181230654844 0.008181230655 0.500000000000 0.125000000000 0.9375000 3.3125000 0.1875000 0.9375000 3.3125000 0.1875000
220 1 1 0.008181230654844 0.008181230655 0.500000000000 0.125000000000 0.9375000 3.3125000 1.6875000 0.9375000 3.3125000 1.6875000
221 1 1 0.008181230654844 0.008181230655 0.500000000000 0.125000000000 0.9375000 2.3125000 0.4375000 0.9375000 2.3125000 0.4375000
222 1 1 0.008181230654844 0.008181230655 0.500000000000 0.125000000000 0.9375000 2.3125000 1.4375000 0.9375000 2.3125000 1.4375000
223 1 1 0.008181230654844 0.008181230655 0.500000000000 0.125000000000 0.9375000 3.3125000 0.4375000 0.9375000 3.3125000 0.4375000
224 1 1 0.008181230654844 0.008181230655 0.500000000000 0.125000000000 0.9375000 3.3125000 1.4375000 0.9375000 3.3125000 1.4375000
225 1 1 0.008181230654844 0.008181230655 0.500000000000 0.125000000000 0.9375000 2.3125000 0.6875000 0.9375000 2.3125000 0.6875000
226 1 1 0.008181230654844 0.008181230655 0.500000000000 0.125000000000 0.9375000 2.3125000 1.1875000 0.9375000 2.3125000 1.1875000
227 1 1 0.008181230654844 0.008181230655 0.500000000000 0.125000000000 0.9375000 3.3125000 0.6875000 0.9375000 3.3125000 0.6875000
228 1 1 0.008181230654844 0.008181230655 0.500000000000 0.125000000000 0.9375000 3.3125000 1.1875000 0.9375000 3.3125000 1.1875000
229 1 1 0.008181230654844 0.008181230655 0.500000000000 0.125000000000 0.9375000 2.3125000 0.9375000 0.9375000 2.3125000 0.9375000